
 Distributed Data Interface kickoff program.
 Initiating 1 compute processes on 1 nodes to run the following command:
 C:\WinGAMESS/gamess.07.exe GAKB3LYPRuComplexHexBromoEthECPReHess 

          ******************************************************
          *         GAMESS VERSION = 24 MAR 2007 (R1)          *
          *             FROM IOWA STATE UNIVERSITY             *
          * M.W.SCHMIDT, K.K.BALDRIDGE, J.A.BOATZ, S.T.ELBERT, *
          *   M.S.GORDON, J.H.JENSEN, S.KOSEKI, N.MATSUNAGA,   *
          *          K.A.NGUYEN, S.J.SU, T.L.WINDUS,           *
          *       TOGETHER WITH M.DUPUIS, J.A.MONTGOMERY       *
          *         J.COMPUT.CHEM.  14, 1347-1363(1993)        *
          ******************* WINDOWS VERSION ******************

     SINCE 1993, STUDENTS AND POSTDOCS WORKING AT IOWA STATE UNIVERSITY
     AND ALSO IN THEIR VARIOUS JOBS AFTER LEAVING ISU HAVE MADE IMPORTANT
     CONTRIBUTIONS TO THE CODE:
     IVANA ADAMOVIC, CHRISTINE AIKENS, YURI ALEXEEV, POOJA ARORA, ROB BELL,
     PRADIPTA BANDYOPADHYAY, JONATHAN BENTZ, BRETT BODE, GALINA CHABAN,
     WEI CHEN, CHEOL HO CHOI, PAUL DAY, TIM DUDLEY, DMITRI FEDOROV,
     GRAHAM FLETCHER, MARK FREITAG, KURT GLAESEMANN, GRANT MERRILL,
     TAKESHI NAGATA, HEATHER NETZLOFF, BOSILJKA NJEGIC, RYAN OLSON,
     MIKE PAK, JIM SHOEMAKER, LYUDMILA SLIPCHENKO, JIE SONG,
     TETSUYA TAKETSUGU, SIMON WEBB.

     ADDITIONAL CODE HAS BEEN PROVIDED BY COLLABORATORS IN OTHER GROUPS:
     IOWA STATE UNIVERSITY: JOE IVANIC, KLAUS RUEDENBERG
     UNIVERSITY OF TOKYO: KIMIHIKO HIRAO, HARUYUKI NAKANO, TAKAHITO
          NAKAJIMA, TAKAO TSUNEDA, MUNEAKI KAMIYA, SUSUMU YANAGISAWA,
          KIYOSHI YAGI, MAHITO CHIBA, SEIKEN TOKURA, NAOAKI KAWAKAMI
     UNIVERSITY OF SOUTHERN DENMARK: FRANK JENSEN
     UNIVERSITY OF IOWA: VISVALDAS KAIRYS, HUI LI
     NATIONAL INST. OF STANDARDS AND TECHNOLOGY: WALT STEVENS, DAVID GARMER
     UNIVERSITY OF PISA: BENEDETTA MENNUCCI, JACOPO TOMASI
     UNIVERSITY OF MEMPHIS: HENRY KURTZ, PRAKASHAN KORAMBATH
     UNIVERSITY OF ALBERTA: MARIUSZ KLOBUKOWSKI
     UNIVERSITY OF NEW ENGLAND: MARK SPACKMAN
     MIE UNIVERSITY: HIROAKI UMEDA
     MICHIGAN STATE UNIVERSITY:
          KAROL KOWALSKI, MARTA WLOCH, PIOTR PIECUCH
     UNIVERSITY OF SILESIA: MONIKA MUSIAL, STANISLAW KUCHARSKI
     FACULTES UNIVERSITAIRES NOTRE-DAME DE LA PAIX:
          OLIVIER QUINET, BENOIT CHAMPAGNE
     UNIVERSITY OF CALIFORNIA - SANTA BARBARA: BERNARD KIRTMAN
     INSTITUTE FOR MOLECULAR SCIENCE: KAZUYA ISHIMURA AND SHIGERU NAGASE
     UNIVERSITY OF NOTRE DAME: DAN CHIPMAN
     KYUSHU UNIVERSITY:
          FENG LONG GU, JACEK KORCHOWIEC, MARCIN MAKOWSKI, AND YURIKO AOKI
     PENNSYLVANIA STATE UNIVERSITY:
          TZVETELIN IORDANOV, CHET SWALINA, SHARON HAMMES-SCHIFFER

 EXECUTION OF GAMESS BEGUN Tue Jun 19 08:38:08 2007

            ECHO OF THE FIRST FEW INPUT CARDS -
 INPUT CARD> $CONTRL SCFTYP=RHF DFTTYP=B3LYP RUNTYP=HESSIAN MAXIT=100 EXETYP=RUN            
 INPUT CARD>PP=READ $END                                                                    
 INPUT CARD> $STATPT NSTEP=200 $END                                                         
 INPUT CARD> $SYSTEM MWORDS=50 TIMLIM=6000000 $END                                          
 INPUT CARD> $DATA                                                                          
 INPUT CARD>First trial of the Ruthenium Complex optimisation using the HW ECP for Ru and Br
 INPUT CARD>C1                                                                              
 INPUT CARD>Ru         44.0   0.2475268018  -0.2996539927   0.1699680567                    
 INPUT CARD>S   3                                                                           
 INPUT CARD>  1        2.565000000         -1.043105600                                     
 INPUT CARD>  2        1.508000000          1.331478600                                     
 INPUT CARD>  3       0.5129000000         0.5613065000                                     
 INPUT CARD> S   4                                                                          
 INPUT CARD>  1        2.565000000         0.8770128000                                     
 INPUT CARD>  2        1.508000000         -1.263466000                                     
 INPUT CARD>  3       0.5129000000        -0.8384987000                                     
 INPUT CARD>  4       0.1362000000          1.063777300                                     
 INPUT CARD> S   1                                                                          
 INPUT CARD>  1       0.4170000000E-01      1.000000000                                     
 INPUT CARD> P   3                                                                          
 INPUT CARD>  1        4.859000000        -0.9457550000E-01                                 
 INPUT CARD>  2        1.219000000         0.7434798000                                     
 INPUT CARD>  3       0.4413000000         0.3668144000                                     
 INPUT CARD> P   2                                                                          
 INPUT CARD>  1       0.5725000000        -0.8808640000E-01                                 
 INPUT CARD>  2       0.8300000000E-01      1.028397000                                     
 INPUT CARD> P   1                                                                          
 INPUT CARD>  1       0.2500000000E-01      1.000000000                                     
 INPUT CARD> D   3                                                                          
 INPUT CARD>  1        4.195000000         0.4857290000E-01                                 
 INPUT CARD>  2        1.377000000         0.5105223000                                     
 INPUT CARD>  3       0.4828000000         0.5730028000                                     
 INPUT CARD> D   1                                                                          
 INPUT CARD>  1       0.1501000000          1.000000000                                     
 INPUT CARD>                                                                                
 INPUT CARD>Br         35.0   0.1772848294  -0.7047539258   2.7541108535                    
 INPUT CARD> S   2                                                                          
 INPUT CARD>  1        1.159000000         -3.037876900                                     
 INPUT CARD>  2       0.7107000000          3.370373500                                     
 INPUT CARD> S   1                                                                          
 INPUT CARD>  1       0.1905000000          1.000000000                                     
 INPUT CARD> P   2                                                                          
 INPUT CARD>  1        2.691000000        -0.1189800000                                     
 INPUT CARD>  2       0.4446000000          1.042447100                                     
 INPUT CARD> P   1                                                                          
 INPUT CARD>  1       0.1377000000          1.000000000                                     
 INPUT CARD>                                                                                
 INPUT CARD>C           6.0   2.1233731323  -0.5332612824   0.2281036493                    
 INPUT CARD>N31, 6                                                                          
 INPUT CARD>                                                                                
   50000000 WORDS OF MEMORY AVAILABLE

     GRID-BASED DFT OPTIONS
     ----------------------
     DFTTYP=B3LYP        QOP   =   0.000     PFTYP =NONE    
     NRAD  =      96     NTHE  =      12     NPHI  =      24
     NRAD0 =      96     NTHE0 =      12     NPHI0 =      24
      SWOFF=    5.00E-03 (PURE SCF -> DFT)
     SWITCH=    3.00E-04 (COARSE -> TIGHT GRID)
     THRESH=    0.00E+00 GTHRE=    1.00E+00


     RUN TITLE
     ---------
 First trial of the Ruthenium Complex optimisation using the HW ECP for Ru and Br

 THE POINT GROUP OF THE MOLECULE IS C1      
 THE ORDER OF THE PRINCIPAL AXIS IS     0

 ATOM      ATOMIC                      COORDINATES (BOHR)
           CHARGE         X                   Y                   Z
 RU         44.0     0.4677578300       -0.5662639373        0.3211930538
 BR         35.0     0.3350197493       -1.3317918085        5.2045148529
 C           6.0     4.0125933897       -1.0077177036        0.4310533940
 O           8.0     6.2165773901       -1.1963691809        0.4633132912
 C           6.0    -0.1106429127       -4.0601644874       -0.1845851061
 O           8.0    -0.5447815274       -6.1977016590       -0.5528210253
 C           6.0    -2.3959638182        2.8692804448        0.7761325149
 C           6.0    -0.0390024281        3.8207011382       -0.1631190134
 C           6.0     0.3764887222        2.6912817736       -2.6078292043
 C           6.0    -1.6931255419        1.0281880048       -3.1395645795
 C           6.0    -3.4195366241        1.1408973363       -1.0241226033
 H           1.0    -3.2059306052        3.3012625499        2.5982420623
 H           1.0     1.1550286651        5.1958818382        0.7530083953
 H           1.0     1.9554234019        3.0617335659       -3.8461489809
 H           1.0    -1.9611909888       -0.0400254507       -4.8563421638
 H           1.0    -5.1985922274        0.1583036671       -0.8604617426
 BR         35.0    -5.2562257854        9.2439428534       -5.5856246854
 BR         35.0   -10.0318042481        5.3859216964       -4.5390123849
 BR         35.0    -6.7897244117        4.9688809779       -9.8386946477
 C           6.0    -8.2339718177        7.4501459620       -7.2576541480
 C           6.0   -10.0506553572        9.3558101026       -8.5235368215
 BR         35.0   -13.0239841545        7.5591549723      -10.1947495316
 BR         35.0   -11.4918728718       11.8315474558       -5.9419312323
 BR         35.0    -8.2516417614       11.4177100385      -11.2396217374

          INTERNUCLEAR DISTANCES (ANGS.)
          ------------------------------

                1 RU         2 BR         3 C          4 O          5 C     

   1 RU      0.0000000    2.6166455 *  1.8912302 *  3.0612873    1.8930720 *
   2 BR      2.6166455 *  0.0000000    3.1933340    3.9983553    3.2051297  
   3 C       1.8912302 *  3.1933340    0.0000000    1.1706874 *  2.7342399 *
   4 O       3.0612873    3.9983553    1.1706874 *  0.0000000    3.6911702  
   5 C       1.8930720 *  3.2051297    2.7342399 *  3.6911702    0.0000000  
   6 O       3.0629366    4.0161048    3.6918831    4.4827851    1.1705634 *
   7 C       2.3789938 *  3.5386827    3.9677638    5.0425685    3.8945029  
   8 C       2.3509307 *  3.9422664    3.3502436    4.2563648    4.1705626  
   9 C       2.3186845 *  4.6501271    3.1811723    4.0526957    3.8046128  
  10 C       2.3180463 *  4.7125467    3.7211906    4.7476603    3.2244002  
  11 C       2.3567901 *  4.0649221    4.1657591    5.3057765    3.2921734  
  12 H       3.0691687    3.3799550    4.5941335    5.6394077    4.4750859  
  13 H       3.0792992    4.2035080    3.6183490    4.3173882    4.9685038  
  14 H       3.0279971    5.3925028    3.3083882    3.9194976    4.3764306  
  15 H       3.0391359    5.5034965    4.2525271    5.1986584    3.4053434  
  16 H       3.0869150    4.4155454    4.9605550    6.1232374    3.5157252  
  17 BR      6.7745982    8.5250981    7.9765105    8.8106817    8.0714281  
  18 BR      6.8852227    8.3256760    8.5789618    9.6472905    7.6065253  
  19 BR      7.2273330    9.4181451    8.4978275    9.3666700    7.8371065  
  20 C       7.4353048    9.2546384    8.8647858    9.8032701    8.3419557  
  21 C       8.9697310   10.7221612   10.3880926   11.3092350    9.8763578  
  22 BR     10.0213735   11.7692787   11.5518796   12.5276800   10.6095269  
  23 BR      9.6994772   11.0671719   11.1736642   12.1173846   10.7830943  
  24 BR      9.9465054   11.9116633   11.1128152   11.8965242   10.9483985  

                6 O          7 C          8 C          9 C         10 C     

   1 RU      3.0629366    2.3789938 *  2.3509307 *  2.3186845 *  2.3180463 *
   2 BR      4.0161048    3.5386827    3.9422664    4.6501271    4.7125467  
   3 C       3.6918831    3.9677638    3.3502436    3.1811723    3.7211906  
   4 O       4.4827851    5.0425685    4.2563648    4.0526957    4.7476603  
   5 C       1.1705634 *  3.8945029    4.1705626    3.8046128    3.2244002  
   6 O       0.0000000    4.9472599    5.3122669    4.8524666    4.1066138  
   7 C       4.9472599    0.0000000    1.4339299 *  2.3168884 *  2.3197218 *
   8 C       5.3122669    1.4339299 *  0.0000000    1.4419307 *  2.3303924 *
   9 C       4.8524666    2.3168884 *  1.4419307 *  0.0000000    1.4328813 *
  10 C       4.1066138    2.3197218 *  2.3303924 *  1.4328813 *  0.0000000  
  11 C       4.1782013    1.4273989 *  2.3278198 *  2.3260712 *  1.4461450 *
  12 H       5.4800190    1.0796692 *  2.2403871 *  3.3597123    3.3625820  
  13 H       6.1349947    2.2465526 *  1.0788108 *  2.2559575 *  3.3732208  
  14 H       5.3662376    3.3608836    2.2524855 *  1.0797946 *  2.2417686 *
  15 H       4.0454722    3.3625814    3.3729129    2.2438985 *  1.0793483 *
  16 H       4.1718302    2.2377730 *  3.3685284    3.3697747    2.2599837 *
  17 BR      8.9487488    5.0003575    4.9083732    4.8364631    4.9124502  
  18 BR      8.1992365    5.1001901    5.8318705    5.7804741    5.0336373  
  19 BR      8.3656769    6.1800112    6.2726442    5.5203989    4.9182955  
  20 C       9.0168788    5.7873799    6.0489108    5.7582580    5.3177147  
  21 C      10.5279102    7.2393540    7.4980366    7.2583536    6.8626915  
  22 BR     11.0742068    8.4554178    8.9055893    8.5463391    7.8635369  
  23 BR     11.5202160    7.6353909    8.0032976    8.1210814    7.8593295  
  24 BR     11.6407705    8.3961431    8.3309862    7.9394759    7.7874906  

               11 C         12 H         13 H         14 H         15 H     

   1 RU      2.3567901 *  3.0691687    3.0792992    3.0279971    3.0391359  
   2 BR      4.0649221    3.3799550    4.2035080    5.3925028    5.5034965  
   3 C       4.1657591    4.5941335    3.6183490    3.3083882    4.2525271  
   4 O       5.3057765    5.6394077    4.3173882    3.9194976    5.1986584  
   5 C       3.2921734    4.4750859    4.9685038    4.3764306    3.4053434  
   6 O       4.1782013    5.4800190    6.1349947    5.3662376    4.0454722  
   7 C       1.4273989 *  1.0796692 *  2.2465526 *  3.3608836    3.3625814  
   8 C       2.3278198 *  2.2403871 *  1.0788108 *  2.2524855 *  3.3729129  
   9 C       2.3260712 *  3.3597123    2.2559575 *  1.0797946 *  2.2438985 *
  10 C       1.4461450 *  3.3625820    3.3732208    2.2417686 *  1.0793483 *
  11 C       0.0000000    2.2347533 *  3.3688166    3.3694773    2.2579974 *
  12 H       2.2347533 *  0.0000000    2.6989303 *  4.3709889    4.3728234  
  13 H       3.3688166    2.6989303 *  0.0000000    2.7162555 *  4.3826089  
  14 H       3.3694773    4.3709889    2.7162555 *  0.0000000    2.6973129 *
  15 H       2.2579974 *  4.3728234    4.3826089    2.6973129 *  0.0000000  
  16 H       1.0789656 *  2.6884872 *  4.3748904    4.3804938    2.7234467 *
  17 BR      5.0157539    5.4609152    5.2297399    5.1101475    5.2273814  
  18 BR      4.5551301    5.3412509    6.5495563    6.4718948    5.1489898  
  19 BR      5.3889969    6.9057514    7.0074499    5.7000380    4.5283387  
  20 C       5.3402957    6.2531002    6.6391344    6.1421115    5.3238689  
  21 C       6.8527481    7.6172445    8.0066223    7.5884697    6.8419462  
  22 BR      7.8049580    8.8260746    9.5616174    8.9321950    7.6434800  
  23 BR      7.5514438    7.7476530    8.3468950    8.5676349    8.0766152  
  24 BR      8.0830598    8.8993454    8.7116747    8.0021322    7.6975872  

               16 H         17 BR        18 BR        19 BR        20 C     

   1 RU      3.0869150    6.7745982    6.8852227    7.2273330    7.4353048  
   2 BR      4.4155454    8.5250981    8.3256760    9.4181451    9.2546384  
   3 C       4.9605550    7.9765105    8.5789618    8.4978275    8.8647858  
   4 O       6.1232374    8.8106817    9.6472905    9.3666700    9.8032701  
   5 C       3.5157252    8.0714281    7.6065253    7.8371065    8.3419557  
   6 O       4.1718302    8.9487488    8.1992365    8.3656769    9.0168788  
   7 C       2.2377730 *  5.0003575    5.1001901    6.1800112    5.7873799  
   8 C       3.3685284    4.9083732    5.8318705    6.2726442    6.0489108  
   9 C       3.3697747    4.8364631    5.7804741    5.5203989    5.7582580  
  10 C       2.2599837 *  4.9124502    5.0336373    4.9182955    5.3177147  
  11 C       1.0789656 *  5.0157539    4.5551301    5.3889969    5.3402957  
  12 H       2.6884872 *  5.4609152    5.3412509    6.9057514    6.2531002  
  13 H       4.3748904    5.2297399    6.5495563    7.0074499    6.6391344  
  14 H       4.3804938    5.1101475    6.4718948    5.7000380    6.1421115  
  15 H       2.7234467 *  5.2273814    5.1489898    4.5283387    5.3238689  
  16 H       0.0000000    5.4193364    4.2406768    5.4554561    5.3786010  
  17 BR      5.4193364    0.0000000    3.2956263    3.2926723    2.0413050 *
  18 BR      4.2406768    3.2956263    0.0000000    3.2950213    2.0415708 *
  19 BR      5.4554561    3.2926723    3.2950213    0.0000000    2.0429461 *
  20 C       5.3786010    2.0413050 *  2.0415708 *  2.0429461 *  0.0000000  
  21 C       6.8355970    2.9761409 *  2.9764423 *  2.9751086 *  1.5459181 *
  22 BR      7.5421829    4.8621171    3.5759012    3.5774217    2.9738928 *
  23 BR      7.5152734    3.5775649    3.5752209    4.8612688    2.9719663 *
  24 BR      8.2630024    3.5759801    4.8629522    3.5768309    2.9746137 *

               21 C         22 BR        23 BR        24 BR    

   1 RU      8.9697310   10.0213735    9.6994772    9.9465054  
   2 BR     10.7221612   11.7692787   11.0671719   11.9116633  
   3 C      10.3880926   11.5518796   11.1736642   11.1128152  
   4 O      11.3092350   12.5276800   12.1173846   11.8965242  
   5 C       9.8763578   10.6095269   10.7830943   10.9483985  
   6 O      10.5279102   11.0742068   11.5202160   11.6407705  
   7 C       7.2393540    8.4554178    7.6353909    8.3961431  
   8 C       7.4980366    8.9055893    8.0032976    8.3309862  
   9 C       7.2583536    8.5463391    8.1210814    7.9394759  
  10 C       6.8626915    7.8635369    7.8593295    7.7874906  
  11 C       6.8527481    7.8049580    7.5514438    8.0830598  
  12 H       7.6172445    8.8260746    7.7476530    8.8993454  
  13 H       8.0066223    9.5616174    8.3468950    8.7116747  
  14 H       7.5884697    8.9321950    8.5676349    8.0021322  
  15 H       6.8419462    7.6434800    8.0766152    7.6975872  
  16 H       6.8355970    7.5421829    7.5152734    8.2630024  
  17 BR      2.9761409 *  4.8621171    3.5775649    3.5759801  
  18 BR      2.9764423 *  3.5759012    3.5752209    4.8629522  
  19 BR      2.9751086 *  3.5774217    4.8612688    3.5768309  
  20 C       1.5459181 *  2.9738928 *  2.9719663 *  2.9746137 *
  21 C       0.0000000    2.0400182 *  2.0406677 *  2.0402510 *
  22 BR      2.0400182 *  0.0000000    3.2914300    3.2943338  
  23 BR      2.0406677 *  3.2914300    0.0000000    3.2935018  
  24 BR      2.0402510 *  3.2943338    3.2935018    0.0000000  

  * ... LESS THAN  3.000


     ATOMIC BASIS SET
     ----------------
 THE CONTRACTED PRIMITIVE FUNCTIONS HAVE BEEN UNNORMALIZED
 THE CONTRACTED BASIS FUNCTIONS ARE NOW NORMALIZED TO UNITY

  SHELL TYPE  PRIMITIVE        EXPONENT          CONTRACTION COEFFICIENT(S)

 RU        

      1   S       1             2.5650000   -1.043105612872
      1   S       2             1.5080000    1.331478616430
      1   S       3             0.5129000    0.561306506926

      2   S       4             2.5650000    0.877012759335
      2   S       5             1.5080000   -1.263465941416
      2   S       6             0.5129000   -0.838498661121
      2   S       7             0.1362000    1.063777250675

      3   S       8             0.0417000    1.000000000000

      4   P       9             4.8590000   -0.094575494729
      4   P      10             1.2190000    0.743479758567
      4   P      11             0.4413000    0.366814379558

      5   P      12             0.5725000   -0.088086403165
      5   P      13             0.0830000    1.028397036952

      6   P      14             0.0250000    1.000000000000

      7   D      15             4.1950000    0.048572900896
      7   D      16             1.3770000    0.510522309417
      7   D      17             0.4828000    0.573002810570

      8   D      18             0.1501000    1.000000000000

 BR        

      9   S      19             1.1590000   -3.037876889468
      9   S      20             0.7107000    3.370373488315

     10   S      21             0.1905000    1.000000000000

     11   P      22             2.6910000   -0.118979998874
     11   P      23             0.4446000    1.042447090131

     12   P      24             0.1377000    1.000000000000

 C         

     13   S      25          3047.5248800    0.001834737132
     13   S      26           457.3695180    0.014037322813
     13   S      27           103.9486850    0.068842622264
     13   S      28            29.2101553    0.232184443216
     13   S      29             9.2866630    0.467941348435
     13   S      30             3.1639270    0.362311985337

     14   L      31             7.8682723   -0.119332419775    0.068999066591
     14   L      32             1.8812885   -0.160854151696    0.316423960957
     14   L      33             0.5442493    1.143456437840    0.744308290898

     15   L      34             0.1687145    1.000000000000    1.000000000000

 O         

     16   S      35          5484.6716600    0.001831074430
     16   S      36           825.2349460    0.013950172200
     16   S      37           188.0469580    0.068445078098
     16   S      38            52.9645000    0.232714335992
     16   S      39            16.8975704    0.470192897984
     16   S      40             5.7996353    0.358520852987

     17   L      41            15.5396162   -0.110777549525    0.070874268231
     17   L      42             3.5999336   -0.148026262701    0.339752839147
     17   L      43             1.0137618    1.130767015354    0.727158577316

     18   L      44             0.2700058    1.000000000000    1.000000000000

 C         

     19   S      45          3047.5248800    0.001834737132
     19   S      46           457.3695180    0.014037322813
     19   S      47           103.9486850    0.068842622264
     19   S      48            29.2101553    0.232184443216
     19   S      49             9.2866630    0.467941348435
     19   S      50             3.1639270    0.362311985337

     20   L      51             7.8682723   -0.119332419775    0.068999066591
     20   L      52             1.8812885   -0.160854151696    0.316423960957
     20   L      53             0.5442493    1.143456437840    0.744308290898

     21   L      54             0.1687145    1.000000000000    1.000000000000

 O         

     22   S      55          5484.6716600    0.001831074430
     22   S      56           825.2349460    0.013950172200
     22   S      57           188.0469580    0.068445078098
     22   S      58            52.9645000    0.232714335992
     22   S      59            16.8975704    0.470192897984
     22   S      60             5.7996353    0.358520852987

     23   L      61            15.5396162   -0.110777549525    0.070874268231
     23   L      62             3.5999336   -0.148026262701    0.339752839147
     23   L      63             1.0137618    1.130767015354    0.727158577316

     24   L      64             0.2700058    1.000000000000    1.000000000000

 C         

     25   S      65          3047.5248800    0.001834737132
     25   S      66           457.3695180    0.014037322813
     25   S      67           103.9486850    0.068842622264
     25   S      68            29.2101553    0.232184443216
     25   S      69             9.2866630    0.467941348435
     25   S      70             3.1639270    0.362311985337

     26   L      71             7.8682723   -0.119332419775    0.068999066591
     26   L      72             1.8812885   -0.160854151696    0.316423960957
     26   L      73             0.5442493    1.143456437840    0.744308290898

     27   L      74             0.1687145    1.000000000000    1.000000000000

 C         

     28   S      75          3047.5248800    0.001834737132
     28   S      76           457.3695180    0.014037322813
     28   S      77           103.9486850    0.068842622264
     28   S      78            29.2101553    0.232184443216
     28   S      79             9.2866630    0.467941348435
     28   S      80             3.1639270    0.362311985337

     29   L      81             7.8682723   -0.119332419775    0.068999066591
     29   L      82             1.8812885   -0.160854151696    0.316423960957
     29   L      83             0.5442493    1.143456437840    0.744308290898

     30   L      84             0.1687145    1.000000000000    1.000000000000

 C         

     31   S      85          3047.5248800    0.001834737132
     31   S      86           457.3695180    0.014037322813
     31   S      87           103.9486850    0.068842622264
     31   S      88            29.2101553    0.232184443216
     31   S      89             9.2866630    0.467941348435
     31   S      90             3.1639270    0.362311985337

     32   L      91             7.8682723   -0.119332419775    0.068999066591
     32   L      92             1.8812885   -0.160854151696    0.316423960957
     32   L      93             0.5442493    1.143456437840    0.744308290898

     33   L      94             0.1687145    1.000000000000    1.000000000000

 C         

     34   S      95          3047.5248800    0.001834737132
     34   S      96           457.3695180    0.014037322813
     34   S      97           103.9486850    0.068842622264
     34   S      98            29.2101553    0.232184443216
     34   S      99             9.2866630    0.467941348435
     34   S     100             3.1639270    0.362311985337

     35   L     101             7.8682723   -0.119332419775    0.068999066591
     35   L     102             1.8812885   -0.160854151696    0.316423960957
     35   L     103             0.5442493    1.143456437840    0.744308290898

     36   L     104             0.1687145    1.000000000000    1.000000000000

 C         

     37   S     105          3047.5248800    0.001834737132
     37   S     106           457.3695180    0.014037322813
     37   S     107           103.9486850    0.068842622264
     37   S     108            29.2101553    0.232184443216
     37   S     109             9.2866630    0.467941348435
     37   S     110             3.1639270    0.362311985337

     38   L     111             7.8682723   -0.119332419775    0.068999066591
     38   L     112             1.8812885   -0.160854151696    0.316423960957
     38   L     113             0.5442493    1.143456437840    0.744308290898

     39   L     114             0.1687145    1.000000000000    1.000000000000

 H         

     40   S     115            18.7311370    0.033494604338
     40   S     116             2.8253944    0.234726953484
     40   S     117             0.6401217    0.813757326146

     41   S     118             0.1612778    1.000000000000

 H         

     42   S     119            18.7311370    0.033494604338
     42   S     120             2.8253944    0.234726953484
     42   S     121             0.6401217    0.813757326146

     43   S     122             0.1612778    1.000000000000

 H         

     44   S     123            18.7311370    0.033494604338
     44   S     124             2.8253944    0.234726953484
     44   S     125             0.6401217    0.813757326146

     45   S     126             0.1612778    1.000000000000

 H         

     46   S     127            18.7311370    0.033494604338
     46   S     128             2.8253944    0.234726953484
     46   S     129             0.6401217    0.813757326146

     47   S     130             0.1612778    1.000000000000

 H         

     48   S     131            18.7311370    0.033494604338
     48   S     132             2.8253944    0.234726953484
     48   S     133             0.6401217    0.813757326146

     49   S     134             0.1612778    1.000000000000

 BR        

     50   S     135             1.1590000   -3.037876889468
     50   S     136             0.7107000    3.370373488315

     51   S     137             0.1905000    1.000000000000

     52   P     138             2.6910000   -0.118979998874
     52   P     139             0.4446000    1.042447090131

     53   P     140             0.1377000    1.000000000000

 BR        

     54   S     141             1.1590000   -3.037876889468
     54   S     142             0.7107000    3.370373488315

     55   S     143             0.1905000    1.000000000000

     56   P     144             2.6910000   -0.118979998874
     56   P     145             0.4446000    1.042447090131

     57   P     146             0.1377000    1.000000000000

 BR        

     58   S     147             1.1590000   -3.037876889468
     58   S     148             0.7107000    3.370373488315

     59   S     149             0.1905000    1.000000000000

     60   P     150             2.6910000   -0.118979998874
     60   P     151             0.4446000    1.042447090131

     61   P     152             0.1377000    1.000000000000

 C         

     62   S     153          3047.5248800    0.001834737132
     62   S     154           457.3695180    0.014037322813
     62   S     155           103.9486850    0.068842622264
     62   S     156            29.2101553    0.232184443216
     62   S     157             9.2866630    0.467941348435
     62   S     158             3.1639270    0.362311985337

     63   L     159             7.8682723   -0.119332419775    0.068999066591
     63   L     160             1.8812885   -0.160854151696    0.316423960957
     63   L     161             0.5442493    1.143456437840    0.744308290898

     64   L     162             0.1687145    1.000000000000    1.000000000000

 C         

     65   S     163          3047.5248800    0.001834737132
     65   S     164           457.3695180    0.014037322813
     65   S     165           103.9486850    0.068842622264
     65   S     166            29.2101553    0.232184443216
     65   S     167             9.2866630    0.467941348435
     65   S     168             3.1639270    0.362311985337

     66   L     169             7.8682723   -0.119332419775    0.068999066591
     66   L     170             1.8812885   -0.160854151696    0.316423960957
     66   L     171             0.5442493    1.143456437840    0.744308290898

     67   L     172             0.1687145    1.000000000000    1.000000000000

 BR        

     68   S     173             1.1590000   -3.037876889468
     68   S     174             0.7107000    3.370373488315

     69   S     175             0.1905000    1.000000000000

     70   P     176             2.6910000   -0.118979998874
     70   P     177             0.4446000    1.042447090131

     71   P     178             0.1377000    1.000000000000

 BR        

     72   S     179             1.1590000   -3.037876889468
     72   S     180             0.7107000    3.370373488315

     73   S     181             0.1905000    1.000000000000

     74   P     182             2.6910000   -0.118979998874
     74   P     183             0.4446000    1.042447090131

     75   P     184             0.1377000    1.000000000000

 BR        

     76   S     185             1.1590000   -3.037876889468
     76   S     186             0.7107000    3.370373488315

     77   S     187             0.1905000    1.000000000000

     78   P     188             2.6910000   -0.118979998874
     78   P     189             0.4446000    1.042447090131

     79   P     190             0.1377000    1.000000000000

 TOTAL NUMBER OF BASIS SET SHELLS             =   79
 NUMBER OF CARTESIAN GAUSSIAN BASIS FUNCTIONS =  189
 NUMBER OF ELECTRONS                          =  364
 CHARGE OF MOLECULE                           =    0
 SPIN MULTIPLICITY                            =    1
 NUMBER OF OCCUPIED ORBITALS (ALPHA)          =  182
 NUMBER OF OCCUPIED ORBITALS (BETA )          =  182
 TOTAL NUMBER OF ATOMS                        =   24
 THE NUCLEAR REPULSION ENERGY IS     6816.9318568571
 NOTE THIS RUN IS USING CORE POTENTIALS, AND THE NUMBER OF ELECTRONS,
 OCCUPIED ORBITALS, AND NUCLEAR REPULSION ENERGY WILL BE ADJUSTED BELOW
 AFTER REMOVAL OF THE CORE CHARGES.

     $NEO OPTIONS
     ------------
     NUNIQN=       0     BASNUC=DZSNB        NEOSCF=NONE    
     NEOCI =NONE         NUMULT=       2     NUCST =       1
     NAUXNB=       0     VNUCEX=       F     NEOOPT=       F
     NTAUXB=       0     NEOHSS=       F     HSSINI=READH   
     HSSUPD=POWELLUP     DIRNUC=       F     SYMNUC=       F
     QMTOLN= 0.0E+00     USRDEX=       F
     POSNEO=       F     POSPRP=       F

     $CONTRL OPTIONS
     ---------------
 SCFTYP=RHF          RUNTYP=HESSIAN      EXETYP=RUN     
 MPLEVL=       0     CITYP =NONE         CCTYP =NONE         VBTYP =NONE    
 DFTTYP=B3LYP        TDDFT =NONE    
 MULT  =       1     ICHARG=       0     NZVAR =       0     COORD =UNIQUE  
 PP    =READ         RELWFN=NONE         LOCAL =NONE         NUMGRD=       F
 ISPHER=      -1     NOSYM =       0     MAXIT =     100     UNITS =ANGS    
 PLTORB=       F     MOLPLT=       F     AIMPAC=       F     FRIEND=        
 NPRINT=       7     IREST =       0     GEOM  =INPUT   
 NORMF =       0     NORMP =       0     ITOL  =      20     ICUT  =       9
 INTTYP=BEST         GRDTYP=BEST         QMTTOL= 1.0E-06

     $SYSTEM OPTIONS
     ---------------
  REPLICATED MEMORY=    50000000 WORDS (ON EVERY NODE).
 DISTRIBUTED MEMDDI=           0 MILLION WORDS IN AGGREGATE,
 MEMDDI DISTRIBUTED OVER   1 PROCESSORS IS           0 WORDS/PROCESSOR.
 TOTAL MEMORY REQUESTED ON EACH PROCESSOR=    50000000 WORDS.
 TIMLIM=     6000000.00 MINUTES, OR  4166.67 DAYS.
 PARALL= F  BALTYP=  NXTVAL  KDIAG=    0  COREFL= F

          --------------
          ECP POTENTIALS
          --------------

 PARAMETERS FOR "RU-ECP  " ON ATOM    1 WITH ZCORE  28 AND LMAX  3 ARE
 FOR L= 3      COEFF    N           ZETA
    1       -0.05153    0      554.37963
    2      -20.18165    1      155.10669
    3     -105.99669    2       48.49763
    4      -42.21668    2       14.77016
    5       -3.76750    2        5.20774
 FOR L= 0      COEFF    N           ZETA
    1        2.95783    0       66.71181
    2       25.37487    1       77.35036
    3      536.12624    2       18.35714
    4     -651.20572    2       11.84047
    5      381.38169    2        8.11795
 FOR L= 1      COEFF    N           ZETA
    1        4.96516    0       54.99379
    2       23.88615    1       13.93992
    3      464.46313    2       15.21182
    4     -714.44518    2       10.54607
    5      377.55036    2        7.55395
 FOR L= 2      COEFF    N           ZETA
    1        3.03530    0       60.34446
    2       23.29017    1       45.21003
    3      146.09266    2       19.11901
    4       28.91298    2        4.27121

 PARAMETERS FOR "BR-ECP  " ON ATOM    2 WITH ZCORE  28 AND LMAX  3 ARE
 FOR L= 3      COEFF    N           ZETA
    1      -28.00000    1      213.61440
    2     -134.92689    2       41.05854
    3      -41.92719    2        8.70865
    4       -5.93364    2        2.60747
 FOR L= 0      COEFF    N           ZETA
    1        3.00000    0       54.19807
    2       27.34306    1       32.90536
    3      118.80288    2       13.67449
    4       43.43549    2        3.03412
 FOR L= 1      COEFF    N           ZETA
    1        5.00000    0       54.25633
    2       25.05043    1       26.00956
    3       92.61575    2       28.20130
    4       95.82490    2        9.43411
    5       26.26850    2        2.53218
 FOR L= 2      COEFF    N           ZETA
    1        3.00000    0       87.63287
    2       22.55336    1       61.73734
    3      178.12420    2       32.43851
    4       76.99242    2        8.75372
    5        9.48183    2        1.66332

 PARAMETERS FOR "BR-ECP  " ON ATOM   17 ARE THE SAME AS ATOM   2

 PARAMETERS FOR "BR-ECP  " ON ATOM   18 ARE THE SAME AS ATOM   2

 PARAMETERS FOR "BR-ECP  " ON ATOM   19 ARE THE SAME AS ATOM   2

 PARAMETERS FOR "BR-ECP  " ON ATOM   22 ARE THE SAME AS ATOM   2

 PARAMETERS FOR "BR-ECP  " ON ATOM   23 ARE THE SAME AS ATOM   2

 PARAMETERS FOR "BR-ECP  " ON ATOM   24 ARE THE SAME AS ATOM   2

 THE ECP RUN REMOVES  224 CORE ELECTRONS, AND THE SAME NUMBER OF PROTONS.
 NUMBER OF ELECTRONS KEPT IN THE CALCULATION IS =  140
 NUMBER OF OCCUPIED ORBITALS (ALPHA) KEPT IS    =   70
 NUMBER OF OCCUPIED ORBITALS (BETA ) KEPT IS    =   70
 THE ADJUSTED NUCLEAR REPULSION ENERGY=     1189.2628900087
          ECP ANGULAR INTS.........     0.02 SECONDS

          ----------------
          PROPERTIES INPUT
          ----------------

     MOMENTS            FIELD           POTENTIAL          DENSITY
 IEMOM =       1   IEFLD =       0   IEPOT =       0   IEDEN =       0
 WHERE =COMASS     WHERE =NUCLEI     WHERE =NUCLEI     WHERE =NUCLEI  
 OUTPUT=BOTH       OUTPUT=BOTH       OUTPUT=BOTH       OUTPUT=BOTH    
 IEMINT=       0   IEFINT=       0                     IEDINT=       0
                                                       MORB  =       0
          EXTRAPOLATION IN EFFECT
          DIIS IN EFFECT
 ORBITAL PRINTING OPTION: NPREO=   1 189   2   1

     -------------------------------
     INTEGRAL TRANSFORMATION OPTIONS
     -------------------------------
     NWORD  =         0     CUTOFF = 1.0E-09
     MPTRAN =         0     DIRTRF =       F
     AOINTS =DUP     

          ----------------------
          INTEGRAL INPUT OPTIONS
          ----------------------
 NOPK  =       1 NORDER=       0 SCHWRZ=       T

     ------------------------------------------
     THE POINT GROUP IS C1 , NAXIS= 0, ORDER= 1
     ------------------------------------------

     DIMENSIONS OF THE SYMMETRY SUBSPACES ARE
 A   =  189

 ..... DONE SETTING UP THE RUN .....
 STEP CPU TIME =     0.13 TOTAL CPU TIME =        0.1 (    0.0 MIN)
 TOTAL WALL CLOCK TIME=        0.2 SECONDS, CPU UTILIZATION IS  66.14%

     ---------------------------------
     HESSIAN MATRIX CONTROL PARAMETERS
     ---------------------------------
     METHOD=SEMINUM    NVIB  =       1   VIBSIZ= 0.01000
     RDHESS=       F   PURIFY=       F   PRTIFC=       F
     VIBANL=       T   DECOMP=       F   PROJCT=       F
     SCLFAC= 1.00000   PRTSCN=       F   NPRT  =       0
     PULCOR=       F   NPUN  =       0   REDOVB=       T
     THERMOCHEMISTRY WILL BE PRINTED FOR    1 TEMPERATURES:
      298.15000
1   ATOM  0
                                        -------------------
   COORD  0                             NUCLEAR COORDINATES
                                        -------------------
     VIB  0

                       ATOM             X              Y              Z

                 1  RU               0.467758      -0.566264       0.321193
                 2  BR               0.335020      -1.331792       5.204515
                 3  C                4.012593      -1.007718       0.431053
                 4  O                6.216577      -1.196369       0.463313
                 5  C               -0.110643      -4.060164      -0.184585
                 6  O               -0.544782      -6.197702      -0.552821
                 7  C               -2.395964       2.869280       0.776133
                 8  C               -0.039002       3.820701      -0.163119
                 9  C                0.376489       2.691282      -2.607829
                10  C               -1.693126       1.028188      -3.139565
                11  C               -3.419537       1.140897      -1.024123
                12  H               -3.205931       3.301263       2.598242
                13  H                1.155029       5.195882       0.753008
                14  H                1.955423       3.061734      -3.846149
                15  H               -1.961191      -0.040025      -4.856342
                16  H               -5.198592       0.158304      -0.860462
                17  BR              -5.256226       9.243943      -5.585625
                18  BR             -10.031804       5.385922      -4.539012
                19  BR              -6.789724       4.968881      -9.838695
                20  C               -8.233972       7.450146      -7.257654
                21  C              -10.050655       9.355810      -8.523537
                22  BR             -13.023984       7.559155     -10.194750
                23  BR             -11.491873      11.831547      -5.941931
                24  BR              -8.251642      11.417710     -11.239622

          ********************
          1 ELECTRON INTEGRALS
          ********************
 TIME TO DO ORDINARY INTEGRALS=      0.12
 TIME TO DO      ECP INTEGRALS=      6.87
 ...... END OF ONE-ELECTRON INTEGRALS ......
 STEP CPU TIME =     7.02 TOTAL CPU TIME =        7.1 (    0.1 MIN)
 TOTAL WALL CLOCK TIME=        7.2 SECONDS, CPU UTILIZATION IS  99.15%

          -------------
          GUESS OPTIONS
          -------------
          GUESS =HUCKEL            NORB  =       0          NORDER=       0
          MIX   =       F          PRTMO =       F          PUNMO =       F
          TOLZ  = 1.0E-08          TOLE  = 1.0E-05
          SYMDEN=       F          PURIFY=       F

 INITIAL GUESS ORBITALS GENERATED BY HUCKEL   ROUTINE.
 HUCKEL GUESS REQUIRES    316779 WORDS.

 SYMMETRIES FOR INITIAL GUESS ORBITALS FOLLOW.   BOTH SET(S).
    70 ORBITALS ARE OCCUPIED (   15 CORE ORBITALS).
    16=A       17=A       18=A       19=A       20=A       21=A       22=A   
    23=A       24=A       25=A       26=A       27=A       28=A       29=A   
    30=A       31=A       32=A       33=A       34=A       35=A       36=A   
    37=A       38=A       39=A       40=A       41=A       42=A       43=A   
    44=A       45=A       46=A       47=A       48=A       49=A       50=A   
    51=A       52=A       53=A       54=A       55=A       56=A       57=A   
    58=A       59=A       60=A       61=A       62=A       63=A       64=A   
    65=A       66=A       67=A       68=A       69=A       70=A       71=A   
    72=A       73=A       74=A       75=A       76=A       77=A       78=A   
    79=A       80=A   
 ...... END OF INITIAL ORBITAL SELECTION ......
 STEP CPU TIME =     0.50 TOTAL CPU TIME =        7.6 (    0.1 MIN)
 TOTAL WALL CLOCK TIME=        7.7 SECONDS, CPU UTILIZATION IS  99.26%

                    ----------------------
                    AO INTEGRAL TECHNOLOGY
                    ----------------------
     S,P,L SHELL ROTATED AXIS INTEGRALS, REPROGRAMMED BY
        KAZUYA ISHIMURA (IMS) AND JOSE SIERRA (SYNSTAR).
     S,P,D,L SHELL ROTATED AXIS INTEGRALS PROGRAMMED BY
        KAZUYA ISHIMURA (INSTITUTE FOR MOLECULAR SCIENCE).
     S,P,D,F,G SHELL TO TOTAL QUARTET ANGULAR MOMENTUM SUM 5,
        ERIC PROGRAM BY GRAHAM FLETCHER (ELORET AND NASA ADVANCED
        SUPERCOMPUTING DIVISION, AMES RESEARCH CENTER).
     S,P,D,F,G,L SHELL GENERAL RYS QUADRATURE PROGRAMMED BY
        MICHEL DUPUIS (PACIFIC NORTHWEST NATIONAL LABORATORY).

          --------------------
          2 ELECTRON INTEGRALS
          --------------------

 THE -PK- OPTION IS OFF, THE INTEGRALS ARE NOT IN SUPERMATRIX FORM.
 STORING   15000 INTEGRALS/RECORD ON DISK, USING 12 BYTES/INTEGRAL.
 TWO ELECTRON INTEGRAL EVALUATION REQUIRES   93556 WORDS OF MEMORY.
 SCHWARZ INEQUALITY OVERHEAD:     14627 INTEGRALS, T=        0.05
 II,JST,KST,LST =  1  1  1  1 NREC =         1 INTLOC =    1
 II,JST,KST,LST =  2  1  1  1 NREC =         1 INTLOC =    2
 II,JST,KST,LST =  3  1  1  1 NREC =         1 INTLOC =    7
 II,JST,KST,LST =  4  1  1  1 NREC =         1 INTLOC =   22
 II,JST,KST,LST =  5  1  1  1 NREC =         1 INTLOC =   67
 II,JST,KST,LST =  6  1  1  1 NREC =         1 INTLOC =  214
 II,JST,KST,LST =  7  1  1  1 NREC =         1 INTLOC =  571
 II,JST,KST,LST =  8  1  1  1 NREC =         1 INTLOC = 2257
 II,JST,KST,LST =  9  1  1  1 NREC =         1 INTLOC = 6628
 II,JST,KST,LST = 10  1  1  1 NREC =         1 INTLOC =14453
 II,JST,KST,LST = 11  1  1  1 NREC =         2 INTLOC = 8254
 II,JST,KST,LST = 12  1  1  1 NREC =         4 INTLOC =11217
 II,JST,KST,LST = 13  1  1  1 NREC =         7 INTLOC =10602
 II,JST,KST,LST = 14  1  1  1 NREC =         8 INTLOC =12435
 II,JST,KST,LST = 15  1  1  1 NREC =        14 INTLOC =11874
 II,JST,KST,LST = 16  1  1  1 NREC =        22 INTLOC =14514
 II,JST,KST,LST = 17  1  1  1 NREC =        24 INTLOC =10612
 II,JST,KST,LST = 18  1  1  1 NREC =        35 INTLOC = 1343
 II,JST,KST,LST = 19  1  1  1 NREC =        49 INTLOC =12491
 II,JST,KST,LST = 20  1  1  1 NREC =        53 INTLOC = 2508
 II,JST,KST,LST = 21  1  1  1 NREC =        71 INTLOC = 4231
 II,JST,KST,LST = 22  1  1  1 NREC =        95 INTLOC =11642
 II,JST,KST,LST = 23  1  1  1 NREC =        99 INTLOC =10726
 II,JST,KST,LST = 24  1  1  1 NREC =       122 INTLOC =11402
 II,JST,KST,LST = 25  1  1  1 NREC =       157 INTLOC = 4731
 II,JST,KST,LST = 26  1  1  1 NREC =       162 INTLOC = 7088
 II,JST,KST,LST = 27  1  1  1 NREC =       193 INTLOC = 3837
 II,JST,KST,LST = 28  1  1  1 NREC =       241 INTLOC = 8261
 II,JST,KST,LST = 29  1  1  1 NREC =       249 INTLOC = 4776
 II,JST,KST,LST = 30  1  1  1 NREC =       293 INTLOC =13282
 II,JST,KST,LST = 31  1  1  1 NREC =       360 INTLOC = 4281
 II,JST,KST,LST = 32  1  1  1 NREC =       371 INTLOC =11551
 II,JST,KST,LST = 33  1  1  1 NREC =       436 INTLOC = 4335
 II,JST,KST,LST = 34  1  1  1 NREC =       529 INTLOC = 4251
 II,JST,KST,LST = 35  1  1  1 NREC =       545 INTLOC = 6135
 II,JST,KST,LST = 36  1  1  1 NREC =       635 INTLOC =  257
 II,JST,KST,LST = 37  1  1  1 NREC =       759 INTLOC = 2524
 II,JST,KST,LST = 38  1  1  1 NREC =       781 INTLOC = 2456
 II,JST,KST,LST = 39  1  1  1 NREC =       897 INTLOC =14488
 II,JST,KST,LST = 40  1  1  1 NREC =      1055 INTLOC = 2867
 II,JST,KST,LST = 41  1  1  1 NREC =      1085 INTLOC = 6721
 II,JST,KST,LST = 42  1  1  1 NREC =      1126 INTLOC = 4627
 II,JST,KST,LST = 43  1  1  1 NREC =      1159 INTLOC =   64
 II,JST,KST,LST = 44  1  1  1 NREC =      1202 INTLOC = 4646
 II,JST,KST,LST = 45  1  1  1 NREC =      1236 INTLOC =13243
 II,JST,KST,LST = 46  1  1  1 NREC =      1283 INTLOC =13739
 II,JST,KST,LST = 47  1  1  1 NREC =      1319 INTLOC =13457
 II,JST,KST,LST = 48  1  1  1 NREC =      1369 INTLOC = 5089
 II,JST,KST,LST = 49  1  1  1 NREC =      1407 INTLOC = 1159
 II,JST,KST,LST = 50  1  1  1 NREC =      1457 INTLOC = 7508
 II,JST,KST,LST = 51  1  1  1 NREC =      1469 INTLOC = 5400
 II,JST,KST,LST = 52  1  1  1 NREC =      1493 INTLOC = 6523
 II,JST,KST,LST = 53  1  1  1 NREC =      1537 INTLOC =13232
 II,JST,KST,LST = 54  1  1  1 NREC =      1644 INTLOC =11623
 II,JST,KST,LST = 55  1  1  1 NREC =      1658 INTLOC = 3915
 II,JST,KST,LST = 56  1  1  1 NREC =      1684 INTLOC = 4876
 II,JST,KST,LST = 57  1  1  1 NREC =      1736 INTLOC = 6263
 II,JST,KST,LST = 58  1  1  1 NREC =      1851 INTLOC =11420
 II,JST,KST,LST = 59  1  1  1 NREC =      1867 INTLOC = 2930
 II,JST,KST,LST = 60  1  1  1 NREC =      1894 INTLOC =11107
 II,JST,KST,LST = 61  1  1  1 NREC =      1952 INTLOC = 5350
 II,JST,KST,LST = 62  1  1  1 NREC =      2073 INTLOC = 8469
 II,JST,KST,LST = 63  1  1  1 NREC =      2088 INTLOC =13850
 II,JST,KST,LST = 64  1  1  1 NREC =      2184 INTLOC = 6027
 II,JST,KST,LST = 65  1  1  1 NREC =      2356 INTLOC =  385
 II,JST,KST,LST = 66  1  1  1 NREC =      2371 INTLOC = 7687
 II,JST,KST,LST = 67  1  1  1 NREC =      2459 INTLOC = 9006
 II,JST,KST,LST = 68  1  1  1 NREC =      2595 INTLOC = 1739
 II,JST,KST,LST = 69  1  1  1 NREC =      2616 INTLOC = 8054
 II,JST,KST,LST = 70  1  1  1 NREC =      2643 INTLOC =13698
 II,JST,KST,LST = 71  1  1  1 NREC =      2719 INTLOC = 2975
 II,JST,KST,LST = 72  1  1  1 NREC =      2824 INTLOC =11615
 II,JST,KST,LST = 73  1  1  1 NREC =      2851 INTLOC =14417
 II,JST,KST,LST = 74  1  1  1 NREC =      2886 INTLOC = 3822
 II,JST,KST,LST = 75  1  1  1 NREC =      2980 INTLOC = 6950
 II,JST,KST,LST = 76  1  1  1 NREC =      3116 INTLOC = 4118
 II,JST,KST,LST = 77  1  1  1 NREC =      3149 INTLOC = 1970
 II,JST,KST,LST = 78  1  1  1 NREC =      3189 INTLOC =14903
 II,JST,KST,LST = 79  1  1  1 NREC =      3302 INTLOC =14177
 SCHWARZ INEQUALITY TEST SKIPPED   3400002 INTEGRAL BLOCKS.
 TOTAL NUMBER OF NONZERO TWO-ELECTRON INTEGRALS =            51829582
       3456 INTEGRAL RECORDS WERE STORED ON DISK FILE  8.
  ...... END OF TWO-ELECTRON INTEGRALS .....
 STEP CPU TIME =    19.89 TOTAL CPU TIME =       27.5 (    0.5 MIN)
 TOTAL WALL CLOCK TIME=       32.1 SECONDS, CPU UTILIZATION IS  85.84%

          --------------------------
             R-B3LYP SCF CALCULATION
          --------------------------

     NUCLEAR ENERGY =      1189.2628900087
     MAXIT =  100     NPUNCH=    2
     EXTRAP=T  DAMP=F  SHIFT=F  RSTRCT=F  DIIS=T  DEM=F  SOSCF=F
           DENSITY MATRIX CONV=  1.00E-05
     DFT GRID SWITCH THRESHOLD=  3.00E-04
      DFT SWITCH OFF THRESHOLD=  5.00E-03
     MEMORY REQUIRED FOR RHF STEP=   1044133 WORDS.

     EXCHANGE FUNCTIONAL   =B88&HFX   
     CORRELATION FUNCTIONAL=LYP88&VWN5
     DFT THRESHOLD         =.151E-08
 DFT IS SWITCHED OFF, PERFORMING PURE SCF UNTIL SWOFF THRESHOLD IS REACHED.

 ITER EX DEM     TOTAL ENERGY        E CHANGE  DENSITY CHANGE    DIIS ERROR
          * * *   INITIATING DIIS PROCEDURE   * * *
   1  0  0     -674.8130542933  -674.8130542933   0.851382759   0.396980539
   2  1  0     -675.8458996547    -1.0328453614   0.808818566   0.274204173
   3  2  0     -675.5891773111     0.2567223436   0.526173251   0.382183850
   4  3  0     -676.7045165061    -1.1153391950   0.075270236   0.048354747
   5  4  0     -676.7286381846    -0.0241216785   0.037837176   0.038437068
   6  5  0     -676.7398172240    -0.0111790394   0.024846730   0.006024183
   7  6  0     -676.7415653954    -0.0017481714   0.015595451   0.002280632
   8  7  0     -676.7419136396    -0.0003482443   0.003430947   0.001116042
 CONVERGED TO SWOFF, SO DFT CALCULATION IS NOW SWITCHED ON.
          * * *   INITIATING DIIS PROCEDURE   * * *
   9  8  0     -681.6976630381    -4.9557493985   0.248893201   0.058191822
  10  9  0     -681.7475531170    -0.0498900788   0.115662108   0.068833894
  11 10  0     -681.7402284265     0.0073246905   0.071401984   0.083448027
  12 11  0     -681.7830150708    -0.0427866444   0.068415589   0.034960922
  13 12  0     -681.7887466107    -0.0057315399   0.033640407   0.017982986
  14 13  0     -681.7921265843    -0.0033799735   0.004284044   0.001912833
  15 14  0     -681.7921750482    -0.0000484639   0.001413940   0.001248243
  16 15  0     -681.7921828914    -0.0000078432   0.001062981   0.000538156
  17 16  0     -681.7921864572    -0.0000035657   0.000118758   0.000132831
  18 17  0     -681.7921866085    -0.0000001513   0.000073670   0.000055038
  19 18  0     -681.7921866404    -0.0000000320   0.000018826   0.000007965
  20 19  0     -681.7921866414    -0.0000000009   0.000009842   0.000006754
  21 20  0     -681.7921866417    -0.0000000003   0.000002974   0.000001728

          -----------------
          DENSITY CONVERGED
          -----------------
     TIME TO FORM FOCK OPERATORS=     683.6 SECONDS (      32.6 SEC/ITER)
     TIME TO SOLVE SCF EQUATIONS=       3.2 SECONDS (       0.2 SEC/ITER)

 FINAL R-B3LYP ENERGY IS     -681.7921866417 AFTER  21 ITERATIONS
 DFT EXCHANGE + CORRELATION ENERGY =       -76.9803896418
 TOTAL ELECTRON NUMBER             =       140.0028312683

          ------------
          EIGENVECTORS
          ------------

                      1          2          3          4          5
                  -19.2467   -19.2466   -10.3990   -10.3967   -10.3363
                     A          A          A          A          A   
    1  RU 1  S   -0.000352  -0.000392   0.000260   0.000294  -0.007607
    2  RU 1  S    0.000188   0.000203   0.000207   0.000226  -0.005013
    3  RU 1  S   -0.000953  -0.001014   0.000251   0.000322   0.001446
    4  RU 1  X   -0.000182   0.000473   0.000020   0.000015   0.001843
    5  RU 1  Y   -0.000443   0.000011  -0.000012  -0.000007  -0.000124
    6  RU 1  Z   -0.000082   0.000006   0.000007   0.000004   0.000062
    7  RU 1  X   -0.000122  -0.002877   0.000311   0.000203   0.013963
    8  RU 1  Y    0.003151   0.001419  -0.000289  -0.000193  -0.003186
    9  RU 1  Z   -0.000093  -0.000609   0.000247   0.000178   0.002015
   10  RU 1  X    0.000160  -0.000163  -0.000195  -0.000194  -0.001000
   11  RU 1  Y    0.000115  -0.000107   0.000225   0.000210  -0.000033
   12  RU 1  Z    0.000066   0.000018  -0.000161  -0.000167  -0.000115
   13  RU 1 XX    0.000571   0.001142  -0.000070  -0.000088   0.003323
   14  RU 1 YY    0.001049   0.000679  -0.000066  -0.000083   0.003344
   15  RU 1 ZZ    0.000585   0.000615  -0.000069  -0.000088   0.003589
   16  RU 1 XY    0.000096  -0.000054  -0.000005  -0.000003  -0.000060
   17  RU 1 XZ    0.000042  -0.000019   0.000004   0.000001   0.000073
   18  RU 1 YZ    0.000130   0.000003  -0.000004  -0.000003   0.000077
   19  RU 1 XX    0.000369  -0.002161  -0.000118  -0.000123   0.008483
   20  RU 1 YY   -0.001843   0.000236  -0.000217  -0.000249   0.003759
   21  RU 1 ZZ    0.000840   0.001260  -0.000193  -0.000182   0.001961
   22  RU 1 XY   -0.000597   0.000030   0.000047   0.000027  -0.000541
   23  RU 1 XZ   -0.000455   0.000353  -0.000049  -0.000014  -0.000328
   24  RU 1 YZ   -0.001059  -0.000081   0.000054   0.000034  -0.000230
   25  BR 2  S   -0.000010  -0.000010   0.000000   0.000000  -0.000018
   26  BR 2  S    0.000089   0.000103  -0.000028  -0.000020  -0.001040
   27  BR 2  X    0.000003   0.000066  -0.000011  -0.000014   0.000010
   28  BR 2  Y   -0.000061  -0.000023   0.000017   0.000017  -0.000031
   29  BR 2  Z    0.000012   0.000015  -0.000018  -0.000019   0.000238
   30  BR 2  X    0.000010   0.000152   0.000016   0.000025  -0.000850
   31  BR 2  Y   -0.000182  -0.000095  -0.000036  -0.000039   0.000254
   32  BR 2  Z    0.000037   0.000074   0.000059   0.000055   0.000205
   33  C  3  S   -0.000044   0.000249   0.000013   0.000010   0.995326
   34  C  3  S   -0.000357  -0.000021   0.000036   0.000028   0.036517
   35  C  3  X    0.000087  -0.000456   0.000002   0.000003   0.002196
   36  C  3  Y   -0.000016   0.000024   0.000004   0.000005  -0.000134
   37  C  3  Z   -0.000015  -0.000034   0.000000  -0.000003   0.000011
   38  C  3  S    0.000111   0.014926  -0.000127  -0.000076  -0.027420
   39  C  3  X   -0.001075   0.008612   0.000099   0.000092   0.007779
   40  C  3  Y   -0.000550  -0.000613  -0.000018  -0.000022  -0.000896
   41  C  3  Z    0.000147   0.000066  -0.000006  -0.000004   0.000150
   42  O  4  S   -0.043951   0.994175   0.000001   0.000001  -0.000263
   43  O  4  S   -0.001422   0.030049   0.000002   0.000004  -0.000208
   44  O  4  X    0.000115  -0.002659  -0.000005  -0.000005   0.000659
   45  O  4  Y   -0.000024   0.000241   0.000003   0.000003  -0.000068
   46  O  4  Z    0.000014  -0.000058  -0.000003  -0.000003   0.000011
   47  O  4  S    0.001423  -0.023277  -0.000040  -0.000048  -0.002266
   48  O  4  X   -0.000367   0.007194   0.000036   0.000038   0.002224
   49  O  4  Y    0.000193  -0.000673  -0.000011  -0.000010  -0.000118
   50  O  4  Z   -0.000071   0.000136   0.000011   0.000012   0.000023
   51  C  5  S    0.000250  -0.000022   0.000004   0.000005  -0.001792
   52  C  5  S   -0.000005  -0.000344   0.000011   0.000011  -0.000053
   53  C  5  X    0.000107  -0.000002  -0.000003  -0.000007   0.000146
   54  C  5  Y    0.000445  -0.000035  -0.000003  -0.000002  -0.000072
   55  C  5  Z    0.000065  -0.000030  -0.000002  -0.000005   0.000090
   56  C  5  S    0.014941   0.001467  -0.000010   0.000009  -0.002741
   57  C  5  X   -0.001860   0.000641  -0.000017   0.000013  -0.001250
   58  C  5  Y   -0.008315   0.000085  -0.000016   0.000009   0.001510
   59  C  5  Z   -0.001637   0.000301  -0.000018   0.000004  -0.000676
   60  O  6  S    0.994175   0.043942   0.000000   0.000000  -0.000017
   61  O  6  S    0.030062   0.001235   0.000000  -0.000002  -0.000270
   62  O  6  X    0.000514   0.000036  -0.000003  -0.000003   0.000022
   63  O  6  Y    0.002587   0.000110   0.000005   0.000004  -0.000011
   64  O  6  Z    0.000418   0.000032  -0.000003  -0.000003  -0.000051
   65  O  6  S   -0.023329  -0.000642  -0.000017   0.000001   0.001686
   66  O  6  X   -0.001363  -0.000198   0.000009   0.000005   0.000248
   67  O  6  Y   -0.007021  -0.000204  -0.000030  -0.000020   0.000506
   68  O  6  Z   -0.001127  -0.000129   0.000010   0.000007   0.000405
   69  C  7  S    0.000041   0.000033  -0.000001   0.000001  -0.000051
   70  C  7  S    0.000392   0.000344  -0.000006   0.000001  -0.000233
   71  C  7  X   -0.000001   0.000096  -0.000005  -0.000006   0.000001
   72  C  7  Y   -0.000074  -0.000021   0.000004   0.000002   0.000038
   73  C  7  Z    0.000013   0.000033  -0.000007  -0.000007  -0.000115
   74  C  7  S   -0.002423  -0.001848   0.000045   0.000032   0.002346
   75  C  7  X   -0.000729  -0.000464   0.000026   0.000027   0.000236
   76  C  7  Y    0.000570   0.000587  -0.000041  -0.000037  -0.000591
   77  C  7  Z    0.000672   0.000526   0.000065   0.000050  -0.000047
   78  C  8  S   -0.000035  -0.000011  -0.000003  -0.000002   0.000082
   79  C  8  S   -0.000215  -0.000165  -0.000015  -0.000011   0.000317
   80  C  8  X    0.000007  -0.000120   0.000002  -0.000001   0.000120
   81  C  8  Y   -0.000084   0.000066  -0.000001   0.000003  -0.000010
   82  C  8  Z   -0.000043   0.000052   0.000004   0.000001   0.000097
   83  C  8  S    0.002746   0.000105   0.000106   0.000079  -0.001430
   84  C  8  X   -0.000603   0.000153  -0.000011  -0.000004  -0.000798
   85  C  8  Y   -0.001146   0.000008  -0.000054  -0.000058   0.000364
   86  C  8  Z   -0.000540   0.000105  -0.000003   0.000002  -0.000259
   87  C  9  S    0.000079  -0.000029  -0.000005  -0.000003  -0.000088
   88  C  9  S    0.000730  -0.000302  -0.000025  -0.000016  -0.000249
   89  C  9  X   -0.000003  -0.000070   0.000000  -0.000003   0.000060
   90  C  9  Y   -0.000068   0.000019   0.000002   0.000002   0.000055
   91  C  9  Z    0.000043  -0.000095  -0.000002  -0.000003  -0.000061
   92  C  9  S   -0.003848   0.001609   0.000093   0.000073   0.000359
   93  C  9  X    0.000921  -0.000729   0.000042   0.000043  -0.000512
   94  C  9  Y    0.000928  -0.000530  -0.000039  -0.000039   0.000225
   95  C  9  Z   -0.001400   0.000375   0.000023   0.000027   0.000582
   96  C 10  S   -0.000027   0.000079  -0.000006  -0.000003  -0.000101
   97  C 10  S   -0.000297   0.000707  -0.000033  -0.000016  -0.000500
   98  C 10  X    0.000041   0.000001  -0.000008   0.000000   0.000040
   99  C 10  Y    0.000117  -0.000013   0.000010   0.000001  -0.000031
  100  C 10  Z   -0.000077   0.000061  -0.000007   0.000003   0.000015
  101  C 10  S    0.001432  -0.003991   0.000183   0.000122   0.003438
  102  C 10  X    0.000446  -0.000546   0.000061   0.000026  -0.000123
  103  C 10  Y    0.000281  -0.000370  -0.000073  -0.000040  -0.000137
  104  C 10  Z    0.000496  -0.001921   0.000074   0.000023   0.001278
  105  C 11  S   -0.000022  -0.000031  -0.000001   0.000001   0.000006
  106  C 11  S   -0.000264  -0.000192  -0.000007   0.000005   0.000071
  107  C 11  X   -0.000073   0.000091  -0.000004   0.000006   0.000015
  108  C 11  Y    0.000106  -0.000019   0.000002  -0.000003   0.000211
  109  C 11  Z    0.000047  -0.000044   0.000000   0.000005  -0.000073
  110  C 11  S    0.000673   0.002556   0.000074   0.000036  -0.000942
  111  C 11  X    0.000252   0.001229   0.000036  -0.000017  -0.001470
  112  C 11  Y    0.000021   0.000348  -0.000016  -0.000011  -0.001199
  113  C 11  Z    0.000186  -0.000101   0.000031   0.000012   0.000543
  114  H 12  S    0.000020   0.000019   0.000013   0.000015  -0.000055
  115  H 12  S   -0.000187  -0.000190  -0.000106  -0.000104   0.000054
  116  H 13  S    0.000017  -0.000079   0.000020   0.000020   0.000278
  117  H 13  S    0.000068   0.000065  -0.000074  -0.000076  -0.000034
  118  H 14  S    0.000035   0.000016   0.000015   0.000019   0.000120
  119  H 14  S   -0.000377   0.000259  -0.000106  -0.000113  -0.000103
  120  H 15  S   -0.000032   0.000017   0.000013   0.000017   0.000003
  121  H 15  S    0.000215  -0.000398  -0.000091  -0.000118   0.000084
  122  H 16  S   -0.000058   0.000009   0.000007   0.000016  -0.000158
  123  H 16  S    0.000170   0.000059  -0.000055  -0.000107  -0.000264
  124  BR17  S    0.000000   0.000000   0.000103  -0.000065   0.000002
  125  BR17  S    0.000003  -0.000001   0.002314   0.000017  -0.000013
  126  BR17  X    0.000002  -0.000004  -0.000493   0.000366   0.000014
  127  BR17  Y    0.000001   0.000000  -0.000215  -0.000030  -0.000014
  128  BR17  Z    0.000000  -0.000002  -0.000282   0.000228   0.000015
  129  BR17  X   -0.000005   0.000011  -0.001357  -0.000381  -0.000035
  130  BR17  Y   -0.000003   0.000000  -0.000710  -0.000011   0.000030
  131  BR17  Z   -0.000001   0.000004  -0.000775  -0.000236  -0.000035
  132  BR18  S   -0.000001   0.000000   0.000102  -0.000065   0.000003
  133  BR18  S    0.000004  -0.000002   0.002310   0.000016  -0.000014
  134  BR18  X   -0.000006   0.000000   0.000216   0.000022   0.000019
  135  BR18  Y    0.000007   0.000000   0.000363  -0.000304  -0.000032
  136  BR18  Z   -0.000004   0.000000  -0.000439   0.000301   0.000027
  137  BR18  X    0.000011   0.000000   0.000716   0.000018  -0.000038
  138  BR18  Y   -0.000014  -0.000001   0.000954   0.000303   0.000075
  139  BR18  Z    0.000009   0.000000  -0.001222  -0.000317  -0.000067
  140  BR19  S   -0.000001   0.000000   0.000103  -0.000065   0.000002
  141  BR19  S    0.000002   0.000000   0.002314   0.000019  -0.000012
  142  BR19  X   -0.000003   0.000002  -0.000270   0.000251   0.000009
  143  BR19  Y    0.000005  -0.000003   0.000430  -0.000332  -0.000015
  144  BR19  Z   -0.000004   0.000004   0.000350  -0.000081   0.000012
  145  BR19  X    0.000007  -0.000004  -0.000679  -0.000244  -0.000024
  146  BR19  Y   -0.000009   0.000005   0.001127   0.000333   0.000033
  147  BR19  Z    0.000007  -0.000006   0.001075   0.000121  -0.000023
  148  C 20  S    0.000000   0.000000   0.995325  -0.017140  -0.000007
  149  C 20  S   -0.000001  -0.000002   0.035436  -0.002350   0.000024
  150  C 20  X    0.000000   0.000000   0.000038   0.000338  -0.000003
  151  C 20  Y    0.000000   0.000000  -0.000039  -0.000354   0.000002
  152  C 20  Z    0.000000   0.000000   0.000022   0.000236  -0.000001
  153  C 20  S    0.000002   0.000008  -0.025999   0.009165  -0.000082
  154  C 20  X   -0.000004   0.000002   0.002032  -0.003145   0.000023
  155  C 20  Y   -0.000001   0.000002  -0.002141   0.003294  -0.000012
  156  C 20  Z   -0.000002   0.000003   0.001427  -0.002190  -0.000001
  157  C 21  S    0.000000   0.000000   0.017054   0.995326  -0.000007
  158  C 21  S   -0.000003   0.000000  -0.001132   0.035512   0.000014
  159  C 21  X    0.000000   0.000000  -0.000337  -0.000005   0.000002
  160  C 21  Y    0.000001  -0.000001   0.000354   0.000005  -0.000004
  161  C 21  Z    0.000000  -0.000001  -0.000235   0.000001   0.000005
  162  C 21  S    0.000001  -0.000001   0.008276  -0.026307   0.000012
  163  C 21  X   -0.000001   0.000000   0.003070  -0.002156   0.000007
  164  C 21  Y   -0.000003   0.000002  -0.003220   0.002265   0.000000
  165  C 21  Z    0.000001   0.000001   0.002134  -0.001519  -0.000005
  166  BR22  S    0.000000   0.000000  -0.000062   0.000104   0.000001
  167  BR22  S    0.000000   0.000001   0.000101   0.002320  -0.000005
  168  BR22  X   -0.000001   0.000001  -0.000333   0.000520   0.000004
  169  BR22  Y    0.000001   0.000000   0.000024   0.000202  -0.000004
  170  BR22  Z   -0.000001   0.000000  -0.000205   0.000303   0.000006
  171  BR22  X    0.000001   0.000000   0.000391   0.001309  -0.000009
  172  BR22  Y   -0.000002   0.000001   0.000060   0.000733   0.000008
  173  BR22  Z    0.000002   0.000001   0.000234   0.000740  -0.000011
  174  BR23  S    0.000000   0.000000  -0.000062   0.000105   0.000001
  175  BR23  S    0.000001   0.000000   0.000103   0.002323  -0.000004
  176  BR23  X    0.000000  -0.000001  -0.000231   0.000289   0.000004
  177  BR23  Y    0.000001   0.000000   0.000307  -0.000451  -0.000007
  178  BR23  Z    0.000000   0.000000   0.000076  -0.000347   0.000002
  179  BR23  X    0.000000   0.000001   0.000247   0.000651  -0.000007
  180  BR23  Y   -0.000003   0.000000  -0.000352  -0.001097   0.000013
  181  BR23  Z    0.000000   0.000001  -0.000172  -0.001085  -0.000006
  182  BR24  S    0.000000   0.000000  -0.000062   0.000104   0.000001
  183  BR24  S    0.000002   0.000000   0.000101   0.002317  -0.000009
  184  BR24  X    0.000000   0.000000  -0.000017  -0.000205   0.000003
  185  BR24  Y    0.000001  -0.000001   0.000280  -0.000384  -0.000004
  186  BR24  Z    0.000000   0.000000  -0.000274   0.000461   0.000004
  187  BR24  X    0.000000   0.000000  -0.000067  -0.000736  -0.000005
  188  BR24  Y   -0.000002   0.000001  -0.000309  -0.000920   0.000010
  189  BR24  Z    0.000001   0.000001   0.000332   0.001186  -0.000010

                      6          7          8          9         10
                  -10.3362   -10.2474   -10.2458   -10.2430   -10.2368
                     A          A          A          A          A   
    1  RU 1  S   -0.007656  -0.002863  -0.002236  -0.004554  -0.005059
    2  RU 1  S   -0.005044  -0.001796  -0.001405  -0.003001  -0.003309
    3  RU 1  S    0.001377   0.002083   0.001769   0.000756   0.000856
    4  RU 1  X   -0.000407  -0.000080  -0.000520  -0.000331  -0.000271
    5  RU 1  Y   -0.001791   0.000762   0.000265   0.000415   0.000176
    6  RU 1  Z   -0.000274  -0.000769  -0.000747   0.000165  -0.000141
    7  RU 1  X   -0.001331  -0.001172  -0.008006  -0.004997  -0.004552
    8  RU 1  Y   -0.014571   0.010727   0.003549   0.006579   0.002151
    9  RU 1  Z   -0.000361  -0.007929  -0.008005   0.000724  -0.002956
   10  RU 1  X    0.000358  -0.000346   0.000493   0.000418   0.000366
   11  RU 1  Y    0.000927  -0.000628   0.000103  -0.000430  -0.000004
   12  RU 1  Z    0.000105   0.001129   0.001082  -0.000551   0.000195
   13  RU 1 XX    0.003397   0.000732   0.000897   0.001824   0.001963
   14  RU 1 YY    0.003384   0.001178   0.000588   0.001819   0.002083
   15  RU 1 ZZ    0.003539   0.001040   0.000772   0.001521   0.002041
   16  RU 1 XY   -0.000023  -0.000128  -0.000205   0.000059  -0.000127
   17  RU 1 XZ   -0.000170   0.000075   0.000008   0.000019  -0.000066
   18  RU 1 YZ   -0.000103  -0.000056  -0.000167   0.000060  -0.000079
   19  RU 1 XX    0.003553   0.000342   0.000068   0.003667   0.010022
   20  RU 1 YY    0.008292   0.001984  -0.000071   0.004115   0.000543
   21  RU 1 ZZ    0.002472   0.003386   0.004370   0.002125   0.001479
   22  RU 1 XY    0.000836   0.001299  -0.000034  -0.004064  -0.001829
   23  RU 1 XZ    0.000953  -0.000659   0.003589  -0.000920   0.002674
   24  RU 1 YZ    0.001553  -0.004301  -0.000475   0.000704  -0.000312
   25  BR 2  S   -0.000018  -0.000002  -0.000003  -0.000015   0.000023
   26  BR 2  S   -0.001016   0.000970   0.000752  -0.000363   0.000513
   27  BR 2  X   -0.000020  -0.000037  -0.000101  -0.000005  -0.000215
   28  BR 2  Y   -0.000069   0.000115   0.000025   0.000003   0.000054
   29  BR 2  Z    0.000232   0.000126   0.000120   0.000128  -0.000169
   30  BR 2  X   -0.000048   0.000276   0.000309   0.000467   0.000485
   31  BR 2  Y    0.000896  -0.000318  -0.000207  -0.000689  -0.000136
   32  BR 2  Z    0.000322  -0.000714  -0.000514   0.000160  -0.000219
   33  C  3  S    0.001816   0.000070  -0.000021   0.000006   0.000027
   34  C  3  S    0.000072  -0.000189  -0.000282  -0.000097   0.000085
   35  C  3  X    0.000007   0.000041  -0.000160  -0.000040   0.000130
   36  C  3  Y   -0.000170   0.000187   0.000053   0.000185  -0.000007
   37  C  3  Z    0.000062  -0.000097  -0.000266  -0.000006  -0.000046
   38  C  3  S   -0.002603   0.000679   0.005085   0.000926  -0.004062
   39  C  3  X   -0.000947  -0.001655   0.000616   0.001431   0.002966
   40  C  3  Y    0.001768  -0.002384  -0.000371   0.000195  -0.000301
   41  C  3  Z   -0.000648   0.001429   0.000287   0.000418  -0.000439
   42  O  4  S   -0.000018  -0.000012   0.000020   0.000012   0.000004
   43  O  4  S   -0.000258  -0.000201   0.000380   0.000220   0.000040
   44  O  4  X    0.000015  -0.000016  -0.000020   0.000007   0.000060
   45  O  4  Y   -0.000018  -0.000075  -0.000002   0.000049   0.000011
   46  O  4  Z   -0.000052   0.000043  -0.000002   0.000021  -0.000048
   47  O  4  S    0.001624   0.001112  -0.001952  -0.001246  -0.000714
   48  O  4  X   -0.000594  -0.000190   0.000630   0.000263  -0.000132
   49  O  4  Y   -0.000142   0.000699   0.000006  -0.000287  -0.000044
   50  O  4  Z    0.000277  -0.000391   0.000017  -0.000141   0.000267
   51  C  5  S    0.995328   0.000005   0.000054  -0.000006   0.000003
   52  C  5  S    0.036529  -0.000354  -0.000052  -0.000072   0.000342
   53  C  5  X   -0.000480   0.000004  -0.000193  -0.000189  -0.000091
   54  C  5  Y   -0.002127   0.000159   0.000027   0.000159   0.000207
   55  C  5  Z   -0.000405  -0.000220  -0.000122   0.000001  -0.000053
   56  C  5  S   -0.027640   0.004710  -0.000462   0.001785  -0.000745
   57  C  5  X   -0.001346   0.000594   0.002279  -0.000386   0.001703
   58  C  5  Y   -0.007679  -0.000841   0.000584  -0.000981   0.000561
   59  C  5  Z   -0.001132   0.000168   0.002168   0.000099   0.001055
   60  O  6  S   -0.000264   0.000018  -0.000015   0.000011  -0.000014
   61  O  6  S   -0.000217   0.000355  -0.000266   0.000226  -0.000249
   62  O  6  X   -0.000121   0.000023   0.000064  -0.000033   0.000058
   63  O  6  Y   -0.000646   0.000015  -0.000024   0.000012  -0.000019
   64  O  6  Z   -0.000103  -0.000011   0.000067   0.000009   0.000032
   65  O  6  S   -0.002233  -0.001828   0.001412  -0.001206   0.001320
   66  O  6  X   -0.000492  -0.000306  -0.000477   0.000129  -0.000377
   67  O  6  Y   -0.002112  -0.000528   0.000569  -0.000335   0.000526
   68  O  6  Z   -0.000423  -0.000047  -0.000497  -0.000127  -0.000192
   69  C  7  S   -0.000045  -0.000395   0.000152   0.994817  -0.031146
   70  C  7  S   -0.000237  -0.000645  -0.000476   0.039590  -0.002219
   71  C  7  X    0.000001  -0.000213   0.000170   0.000979  -0.000018
   72  C  7  Y   -0.000009  -0.000053   0.000206  -0.001080   0.000114
   73  C  7  Z   -0.000079  -0.000014   0.000072  -0.000578   0.000427
   74  C  7  S    0.002671  -0.001242  -0.000819  -0.045228   0.015468
   75  C  7  X    0.000648   0.000102   0.000061  -0.007404  -0.000702
   76  C  7  Y   -0.000299  -0.000163  -0.000135   0.006544  -0.004198
   77  C  7  Z   -0.000284   0.000136   0.000066   0.008834  -0.008058
   78  C  8  S    0.000015   0.014462  -0.002410   0.023353  -0.008263
   79  C  8  S    0.000115  -0.000019  -0.000449   0.000014  -0.001062
   80  C  8  X   -0.000182   0.000232  -0.000227   0.000469   0.000195
   81  C  8  Y    0.000063   0.000054   0.000136   0.000114   0.000144
   82  C  8  Z   -0.000139   0.000381   0.000121   0.000057  -0.000143
   83  C  8  S   -0.001103   0.010387  -0.004066   0.010822  -0.001506
   84  C  8  X    0.001326  -0.001977   0.001124  -0.006822   0.000475
   85  C  8  Y    0.001040  -0.003315   0.001035  -0.002825  -0.000149
   86  C  8  Z    0.001165  -0.006802   0.001360  -0.000132   0.000405
   87  C  9  S   -0.000116   0.988836  -0.115445  -0.000040   0.000922
   88  C  9  S   -0.000537   0.039956  -0.005658  -0.000495  -0.000644
   89  C  9  X   -0.000024  -0.000323   0.000452  -0.000093   0.000146
   90  C  9  Y    0.000001  -0.001075   0.000230  -0.000050   0.000162
   91  C  9  Z    0.000037   0.001179  -0.000188  -0.000236   0.000041
   92  C  9  S    0.003446  -0.046977   0.018982  -0.001411  -0.001086
   93  C  9  X    0.000089   0.007340  -0.008825   0.000190  -0.000004
   94  C  9  Y   -0.000395   0.006385  -0.004105   0.000085  -0.000264
   95  C  9  Z    0.000995  -0.010263   0.002254  -0.000080   0.000266
   96  C 10  S   -0.000067   0.115453   0.988763  -0.000813  -0.019038
   97  C 10  S   -0.000204   0.003711   0.040214  -0.000438  -0.001233
   98  C 10  X   -0.000026  -0.000046   0.000735   0.000120   0.000092
   99  C 10  Y   -0.000074  -0.000380  -0.000142   0.000144  -0.000251
  100  C 10  Z   -0.000093  -0.000033   0.001493  -0.000164  -0.000239
  101  C 10  S    0.000385   0.007374  -0.050257  -0.001705   0.012527
  102  C 10  X   -0.000208   0.003517  -0.005163  -0.000289  -0.003733
  103  C 10  Y    0.000654   0.005800  -0.004441  -0.000336   0.003231
  104  C 10  Z    0.000834   0.002389  -0.014291  -0.000380   0.006588
  105  C 11  S    0.000063   0.001260   0.019116   0.031324   0.994975
  106  C 11  S    0.000267  -0.000538   0.000286   0.000406   0.040681
  107  C 11  X   -0.000062  -0.000180  -0.000161  -0.000183   0.001681
  108  C 11  Y   -0.000099   0.000136  -0.000326  -0.000425  -0.000096
  109  C 11  Z    0.000071   0.000195   0.000228  -0.000150   0.000306
  110  C 11  S   -0.001644  -0.001141   0.010741   0.010553  -0.049966
  111  C 11  X   -0.000200   0.000043   0.005745   0.003671  -0.015984
  112  C 11  Y    0.000695  -0.000365   0.002738   0.005737  -0.003859
  113  C 11  Z   -0.000251  -0.000443  -0.005035   0.002653  -0.001284
  114  H 12  S   -0.000024   0.000087   0.000068  -0.000919   0.000077
  115  H 12  S    0.000099   0.000012  -0.000037   0.001683   0.001571
  116  H 13  S   -0.000166   0.000163   0.000002   0.000021   0.000042
  117  H 13  S   -0.000235   0.001159  -0.000317   0.001202   0.000205
  118  H 14  S   -0.000072  -0.000887   0.000162   0.000075   0.000085
  119  H 14  S    0.000035   0.001174   0.001354   0.000128   0.000339
  120  H 15  S    0.000193  -0.000053  -0.000905   0.000056   0.000106
  121  H 15  S    0.000027   0.001554   0.000712   0.000021   0.001274
  122  H 16  S    0.000242   0.000041   0.000150   0.000011  -0.000957
  123  H 16  S   -0.000074   0.000102   0.001260   0.001183   0.000575
  124  BR17  S    0.000002  -0.000001  -0.000001   0.000000   0.000000
  125  BR17  S   -0.000011   0.000012   0.000017   0.000003   0.000006
  126  BR17  X    0.000020  -0.000027  -0.000001   0.000009   0.000005
  127  BR17  Y   -0.000010   0.000012   0.000010  -0.000003  -0.000006
  128  BR17  Z    0.000016  -0.000001   0.000003  -0.000011   0.000003
  129  BR17  X   -0.000050   0.000067   0.000008  -0.000010  -0.000008
  130  BR17  Y    0.000020  -0.000024  -0.000022   0.000007   0.000009
  131  BR17  Z   -0.000038   0.000015  -0.000001   0.000025  -0.000004
  132  BR18  S    0.000001  -0.000001   0.000000   0.000001   0.000001
  133  BR18  S   -0.000008   0.000009   0.000010   0.000007   0.000015
  134  BR18  X    0.000012  -0.000001   0.000018   0.000025  -0.000003
  135  BR18  Y    0.000002  -0.000002  -0.000005  -0.000015  -0.000022
  136  BR18  Z    0.000006   0.000003   0.000007   0.000010   0.000011
  137  BR18  X   -0.000023   0.000006  -0.000026  -0.000039   0.000009
  138  BR18  Y   -0.000005  -0.000003  -0.000003   0.000026   0.000042
  139  BR18  Z   -0.000009  -0.000003  -0.000001  -0.000015  -0.000025
  140  BR19  S    0.000000  -0.000001  -0.000001   0.000000   0.000000
  141  BR19  S   -0.000004   0.000014   0.000016  -0.000002  -0.000001
  142  BR19  X    0.000003  -0.000007  -0.000008   0.000008   0.000008
  143  BR19  Y    0.000004   0.000008   0.000006  -0.000008  -0.000007
  144  BR19  Z    0.000003   0.000003  -0.000006   0.000001   0.000014
  145  BR19  X   -0.000006   0.000021   0.000022  -0.000014  -0.000009
  146  BR19  Y   -0.000006  -0.000024  -0.000020   0.000012   0.000005
  147  BR19  Z   -0.000006  -0.000001   0.000011  -0.000004  -0.000024
  148  C 20  S   -0.000002   0.000001   0.000001   0.000000   0.000000
  149  C 20  S    0.000006  -0.000017  -0.000006   0.000001   0.000007
  150  C 20  X    0.000001   0.000000  -0.000004  -0.000005  -0.000004
  151  C 20  Y    0.000001  -0.000002   0.000004   0.000002   0.000004
  152  C 20  Z   -0.000001  -0.000002  -0.000004   0.000000   0.000000
  153  C 20  S   -0.000018   0.000051  -0.000001  -0.000012  -0.000034
  154  C 20  X   -0.000007   0.000009   0.000016   0.000026   0.000028
  155  C 20  Y   -0.000012   0.000011  -0.000026  -0.000012  -0.000020
  156  C 20  Z    0.000001   0.000007   0.000018   0.000006  -0.000005
  157  C 21  S   -0.000003   0.000001   0.000001  -0.000001  -0.000001
  158  C 21  S    0.000007  -0.000007  -0.000008   0.000003   0.000002
  159  C 21  X    0.000003  -0.000004  -0.000002   0.000000   0.000001
  160  C 21  Y    0.000001   0.000000   0.000000  -0.000003  -0.000002
  161  C 21  Z    0.000003   0.000000   0.000002   0.000001   0.000001
  162  C 21  S   -0.000003  -0.000001   0.000034   0.000015   0.000023
  163  C 21  X   -0.000005   0.000007   0.000019   0.000006   0.000007
  164  C 21  Y   -0.000005   0.000003  -0.000010   0.000000  -0.000003
  165  C 21  Z   -0.000007  -0.000004   0.000000   0.000003   0.000008
  166  BR22  S    0.000000   0.000000   0.000000   0.000000   0.000000
  167  BR22  S   -0.000005   0.000005   0.000001  -0.000001   0.000000
  168  BR22  X    0.000001  -0.000002  -0.000002   0.000002   0.000002
  169  BR22  Y   -0.000001   0.000001   0.000000  -0.000002  -0.000001
  170  BR22  Z    0.000002   0.000000   0.000002   0.000003   0.000000
  171  BR22  X   -0.000005   0.000006   0.000003  -0.000002  -0.000002
  172  BR22  Y    0.000000   0.000000   0.000000   0.000005   0.000002
  173  BR22  Z   -0.000005   0.000002  -0.000003  -0.000006  -0.000001
  174  BR23  S    0.000000  -0.000001   0.000000   0.000000   0.000000
  175  BR23  S    0.000001   0.000005   0.000004  -0.000003  -0.000003
  176  BR23  X    0.000004  -0.000006  -0.000002   0.000001   0.000000
  177  BR23  Y   -0.000002   0.000001   0.000000  -0.000003  -0.000002
  178  BR23  Z    0.000000  -0.000002   0.000000   0.000001   0.000001
  179  BR23  X   -0.000006   0.000011   0.000004  -0.000002  -0.000002
  180  BR23  Y    0.000001  -0.000004  -0.000001   0.000006   0.000005
  181  BR23  Z   -0.000003   0.000002  -0.000001  -0.000002  -0.000001
  182  BR24  S    0.000000  -0.000001  -0.000001   0.000000   0.000000
  183  BR24  S   -0.000002   0.000000  -0.000002  -0.000002  -0.000002
  184  BR24  X    0.000002  -0.000002  -0.000001  -0.000001   0.000001
  185  BR24  Y    0.000000   0.000002   0.000004  -0.000001  -0.000002
  186  BR24  Z    0.000004  -0.000003  -0.000002  -0.000001   0.000000
  187  BR24  X   -0.000004   0.000006   0.000004   0.000003  -0.000002
  188  BR24  Y    0.000001  -0.000003  -0.000003   0.000002   0.000004
  189  BR24  Z   -0.000006   0.000004   0.000001   0.000001  -0.000003

                     11         12         13         14         15
                  -10.2351    -2.9475    -1.8420    -1.8254    -1.8117
                     A          A          A          A          A   
    1  RU 1  S   -0.005668   1.093441   0.013561   0.000087   0.012396
    2  RU 1  S   -0.003705   0.043499   0.008401   0.000178   0.002618
    3  RU 1  S    0.000747   0.014101   0.003054   0.000108   0.000214
    4  RU 1  X   -0.000119   0.000987  -0.552977   0.794087  -0.239956
[...]
    IR INTENSITY:      0.00069     0.03144     0.09354     0.15555     0.26343

  1   RU           X  0.00000850 -0.00039856  0.00044244  0.00051335  0.00002243
                   Y  0.00005199 -0.00050615 -0.00003950  0.00045873  0.00036458
                   Z  0.00005900 -0.00031433 -0.00005944 -0.00004386  0.00046402
  2   BR           X  0.00000556 -0.00020475  0.00003014  0.00001610 -0.00001092
                   Y -0.00001195 -0.00014926  0.00008795  0.00000327 -0.00000012
                   Z -0.00004579  0.00003746  0.00027118  0.00000634 -0.00007946
  3   C            X -0.00001493  0.00003778  0.00032090  0.00054868 -0.00014519
                   Y  0.00053878  0.00105140 -0.00487451  0.00007641  0.00014245
                   Z  0.00016865  0.00156411 -0.00212691 -0.00064701 -0.00010689
  4   O            X  0.00014905  0.00167674 -0.00264010 -0.00189633  0.00043504
                   Y -0.00014119 -0.00038296  0.00138624  0.00018155 -0.00004464
                   Z -0.00002189 -0.00028743  0.00048226  0.00007177  0.00003650
  5   C            X -0.00052936  0.00270158  0.00239619 -0.00016233  0.00027192
                   Y  0.00026893 -0.00112684 -0.00121793  0.00046138  0.00020738
                   Z -0.00016865 -0.00064936  0.00127876  0.00057082  0.00014108
  6   O            X  0.00004107 -0.00003306 -0.00029378 -0.00020972 -0.00028390
                   Y -0.00052687  0.00342714  0.00172501 -0.00164727 -0.00129493
                   Z -0.00006854  0.00060682  0.00000077 -0.00033529 -0.00020180
  7   C            X  0.04470711 -0.07639957  0.08378263  0.08207270  0.06990532
                   Y  0.04159083 -0.07614245  0.01216284  0.09184063  0.01384310
                   Z  0.01916485 -0.04139893 -0.05432541  0.06184063 -0.04753502
  8   C            X  0.03764113  0.08761904 -0.06270021  0.00729593 -0.08043322
                   Y -0.00851927  0.03579364  0.02986235 -0.04569651 -0.03773486
                   Z -0.05288010 -0.05831481  0.10676902 -0.07756631  0.03065387
  9   C            X -0.00938838 -0.06409019 -0.05520390 -0.02458634  0.06959487
                   Y -0.02565768 -0.02736156 -0.09064033  0.01940377  0.08065531
                   Z -0.04047642  0.05535010 -0.09946637  0.06696752  0.05847384
 10   C            X -0.07434526  0.08112753  0.10308879  0.08586858 -0.03583242
                   Y -0.02973023  0.01517237  0.05876333  0.03310694 -0.05006879
                   Z  0.03065529 -0.08589130  0.00380296 -0.03503682 -0.05642363
 11   C            X -0.00069828 -0.01067473 -0.07305382 -0.06594037 -0.02353023
                   Y  0.02281044  0.06510119 -0.00385909 -0.05994553  0.04314667
                   Z  0.04147689  0.12842154  0.04669306 -0.03783408  0.09873287
 12   H            X -0.30150008  0.08836727 -0.05804467 -0.30338524 -0.10133831
                   Y -0.24092840  0.05805910 -0.09633247 -0.21621742 -0.12952059
                   Z -0.06721128 -0.00309040 -0.10430722 -0.02603338 -0.10825475
 13   H            X -0.25392062 -0.09858175  0.14962470 -0.21414814  0.11522959
                   Y  0.01526283  0.03083709  0.00816808 -0.03250032 -0.05479676
                   Z  0.28946810  0.20216381 -0.13055359  0.16156324 -0.22884276
 14   H            X  0.16765822 -0.09499829  0.09932494 -0.12260838 -0.10818046
                   Y  0.24582381 -0.00685449  0.15257492 -0.12204099 -0.22208652
                   Z  0.26255038  0.04120831  0.17061313 -0.07708176 -0.27096004
 15   H            X  0.34515567 -0.16758826 -0.11816314 -0.29266052  0.03824176
                   Y  0.12773466 -0.10515774  0.00089019 -0.10733174 -0.03769733
                   Z -0.13320339  0.02247114  0.08033662  0.11048232 -0.09516644
 16   H            X  0.06679987  0.04668514 -0.03357958 -0.09750849  0.05238541
                   Y -0.15995838 -0.09645588 -0.11265621 -0.01529600 -0.17039546
                   Z -0.32732184 -0.22277401 -0.09484308  0.09563806 -0.33216155
 17   BR           X -0.00000317  0.00000437  0.00000747 -0.00000153  0.00000119
                   Y  0.00000166  0.00000250  0.00000231 -0.00000593 -0.00000248
                   Z  0.00001047 -0.00000205  0.00000305 -0.00000066  0.00000186
 18   BR           X  0.00000007 -0.00000203  0.00000185  0.00000223 -0.00000143
                   Y -0.00000486  0.00000809  0.00000258 -0.00000296  0.00000114
                   Z -0.00001307 -0.00000315  0.00000138  0.00000815 -0.00000617
 19   BR           X  0.00001302 -0.00000653 -0.00000266 -0.00000481  0.00000485
                   Y  0.00000664 -0.00000241  0.00000341 -0.00000462  0.00000184
                   Z  0.00000077  0.00000579 -0.00000264 -0.00000421  0.00000639
 20   C            X -0.00000720  0.00002098 -0.00001025 -0.00000148  0.00001517
                   Y  0.00001461 -0.00007650  0.00001299  0.00005789  0.00002170
                   Z  0.00002361 -0.00006276  0.00003032 -0.00002575 -0.00005016
 21   C            X -0.00000414 -0.00001748  0.00000313 -0.00002231  0.00000046
                   Y  0.00000033 -0.00000476 -0.00000010 -0.00002312 -0.00001478
                   Z -0.00000410  0.00001887 -0.00002736  0.00000467  0.00000221
 22   BR           X  0.00000723  0.00000006  0.00000288 -0.00000285  0.00000435
                   Y -0.00000022  0.00000010  0.00000693 -0.00000268  0.00000228
                   Z -0.00000940  0.00000339  0.00000460  0.00000233 -0.00000316
 23   BR           X -0.00000758  0.00000425  0.00000456  0.00000044  0.00000000
                   Y -0.00000716  0.00000606  0.00000551 -0.00000123  0.00000222
                   Z  0.00000218 -0.00000364  0.00000444 -0.00000200 -0.00000018
 24   BR           X  0.00000305  0.00000131  0.00000309 -0.00000248  0.00000433
                   Y  0.00000935 -0.00000470  0.00000376 -0.00000428  0.00000199
                   Z  0.00000790 -0.00000689  0.00000366 -0.00000405  0.00000126

 TRANS. SAYVETZ    X -0.00194612 -0.01435614  0.02484353  0.00169087 -0.00064036
                   Y -0.00226256  0.01446452  0.00940221 -0.00401619 -0.00065876
                   Z  0.00085274  0.00425716 -0.02362083 -0.00229672  0.00154253
               TOTAL  0.00310383  0.02081934  0.03554639  0.00492582  0.00179539

   ROT. SAYVETZ    X -0.02248329 -0.00791416  0.02173646  0.06577090 -0.00916015
                   Y  0.01459754 -0.10436222  0.20272477 -0.02733872  0.03803820
                   Z -0.01467414  0.02226665  0.10773593 -0.00618818 -0.02785612
               TOTAL  0.03056005  0.10700426  0.23060104  0.07149482  0.04802892

                         66          67          68          69          70
       FREQUENCY:      1970.98     2016.40     3276.64     3282.37     3297.01  
    REDUCED MASS:     13.31188    13.27290     1.09307     1.09433     1.10028
    IR INTENSITY:     18.66230    13.75355     0.00478     0.00494     0.01148

  1   RU           X -0.00113778 -0.00106183  0.00000860  0.00003014  0.00001419
                   Y -0.00088946  0.00115856 -0.00000621  0.00000064  0.00013298
                   Z -0.00018772  0.00049832 -0.00003212 -0.00007039  0.00002802
  2   BR           X -0.00012294 -0.00006877 -0.00000994  0.00000737 -0.00000853
                   Y -0.00010330  0.00010741  0.00001138 -0.00000905  0.00000667
                   Z -0.00002200 -0.00008887  0.00000441 -0.00000129  0.00000591
  3   C            X  0.15212627  0.16709304 -0.00006634 -0.00013781 -0.00006455
                   Y -0.01399119 -0.01422373  0.00008570 -0.00001060 -0.00007914
                   Z  0.00136068  0.00214015  0.00010523  0.00018998 -0.00005877
  4   O            X -0.10476177 -0.11275119  0.00003863  0.00005236  0.00005594
                   Y  0.00930454  0.00962730 -0.00002085 -0.00000582  0.00000440
                   Z -0.00181596 -0.00200351 -0.00001984 -0.00002654  0.00001110
  5   C            X  0.03158034 -0.03036410 -0.00001023  0.00004889 -0.00010150
                   Y  0.15881888 -0.14688261 -0.00001390 -0.00001279 -0.00004029
                   Z  0.02801959 -0.02552619  0.00000506 -0.00003850 -0.00018018
  6   O            X -0.02233316  0.02059790 -0.00001192 -0.00001191  0.00002514
                   Y -0.11309436  0.10241157 -0.00002589  0.00000414  0.00002156
                   Z -0.01898729  0.01720449 -0.00001508  0.00001143  0.00003951
  7   C            X -0.00290518 -0.00056793  0.02225030 -0.02078069  0.01660261
                   Y -0.00198882  0.00043144 -0.01347077  0.01137610 -0.00633316
                   Z -0.00097459  0.00021129 -0.05088032  0.04530993 -0.03127404
  8   C            X  0.00157948 -0.00013840  0.02749421  0.00774362 -0.03993596
                   Y -0.00096910  0.00073881  0.03330598  0.00639681 -0.04631206
                   Z -0.00024075 -0.00147841  0.02191114  0.00158093 -0.02991028
  9   C            X -0.00042998  0.00097290 -0.02885904 -0.04792885 -0.02126658
                   Y -0.00000502  0.00232127 -0.00769303 -0.01197267 -0.00329193
                   Z -0.00031218  0.00107313  0.02188619  0.03784488  0.01993336
 10   C            X  0.00061647 -0.00226686 -0.00042504 -0.00138380 -0.00298352
                   Y -0.00046459 -0.00063737 -0.00344657 -0.01017429 -0.01431904
                   Z -0.00009603  0.00044145 -0.00659850 -0.01847735 -0.02466820
 11   C            X -0.00062653 -0.00057833 -0.00683723  0.01114577 -0.00500952
                   Y  0.00193021  0.00077582 -0.00258249  0.00502462 -0.00134772
                   Z  0.00153629 -0.00126284  0.00194561 -0.00220327  0.00243370
 12   H            X  0.00189971 -0.00084197 -0.25476925  0.22733872 -0.15343037
                   Y  0.00141387  0.00095152  0.13887989 -0.12142873  0.07908296
                   Z  0.00033253 -0.00000001  0.56813345 -0.50214131  0.33469616
 13   H            X  0.00174082  0.00151185 -0.32384907 -0.06556854  0.43130676
                   Y -0.00101906 -0.00173812 -0.37564784 -0.07175443  0.49707806
                   Z  0.00032481 -0.00033908 -0.25035954 -0.04427071  0.33159785
 14   H            X  0.00228609  0.00184808  0.32238319  0.53886247  0.23851730
                   Y -0.00071051 -0.00191395  0.07831929  0.12888208  0.05443751
                   Z  0.00212944 -0.00003787 -0.25405531 -0.42846002 -0.19300936
 15   H            X  0.00037803  0.00175561  0.01054707  0.03144550  0.04338447
                   Y  0.00262411 -0.00224995  0.04767600  0.13021347  0.17583465
                   Z -0.00150995  0.00056404  0.07951404  0.21255275  0.28577118
 16   H            X -0.00043625  0.00078781  0.08291978 -0.13316248  0.06114673
                   Y  0.00207660 -0.00181568  0.04288175 -0.07103741  0.03105427
                   Z -0.00040922 -0.00045736 -0.00959740  0.01270067 -0.00761706
 17   BR           X -0.00000504  0.00001083  0.00000060  0.00000007  0.00000109
                   Y -0.00000505  0.00000812 -0.00000020  0.00000046  0.00000167
                   Z -0.00000449  0.00000749 -0.00000006  0.00000001 -0.00000030
 18   BR           X -0.00000334 -0.00000428 -0.00000045  0.00000092  0.00000020
                   Y -0.00000176 -0.00000465  0.00000040  0.00000023  0.00000118
                   Z  0.00000256  0.00000713 -0.00000040  0.00000013  0.00000045
 19   BR           X -0.00000032  0.00000349 -0.00000046 -0.00000004 -0.00000099
                   Y -0.00000277 -0.00000078 -0.00000018 -0.00000032  0.00000100
                   Z -0.00000319  0.00000251 -0.00000027 -0.00000088  0.00000021
 20   C            X  0.00005511 -0.00006407 -0.00000067 -0.00000552 -0.00000638
                   Y  0.00006480 -0.00001234 -0.00000171 -0.00000555 -0.00002120
                   Z  0.00002180 -0.00013146 -0.00000305  0.00000687 -0.00000606
 21   C            X  0.00001207 -0.00003978 -0.00000204  0.00000159  0.00000349
                   Y  0.00001560  0.00004704 -0.00000064  0.00000204  0.00000393
                   Z -0.00000790 -0.00003336 -0.00000130  0.00000137  0.00000122
 22   BR           X -0.00000393  0.00000862  0.00000002  0.00000019  0.00000002
                   Y -0.00000176 -0.00000038  0.00000016 -0.00000056  0.00000046
                   Z -0.00000207  0.00000439  0.00000000 -0.00000007  0.00000101
 23   BR           X  0.00000061  0.00000177  0.00000040  0.00000018  0.00000053
                   Y -0.00000148 -0.00000309  0.00000025 -0.00000026  0.00000077
                   Z -0.00000191  0.00000119 -0.00000034 -0.00000060  0.00000028
 24   BR           X -0.00000132  0.00000084  0.00000020  0.00000004 -0.00000003
                   Y -0.00000351 -0.00000386 -0.00000033 -0.00000046 -0.00000010
                   Z  0.00000061  0.00000701 -0.00000033 -0.00000059  0.00000003

 TRANS. SAYVETZ    X  0.03044064  0.02772310 -0.00097136 -0.00755214 -0.00522447
                   Y -0.03484013  0.02210321  0.00529242  0.00157105 -0.00196025
                   Z -0.00172329 -0.00581564 -0.00847197  0.00741939 -0.00316900
               TOTAL  0.04629726  0.03592971  0.01003631  0.01070282  0.00641719

   ROT. SAYVETZ    X  0.13738915 -0.03919405 -0.00713666 -0.01539240  0.01246937
                   Y  0.17916105  0.19222788  0.03515991 -0.02343601 -0.00289438
                   Z  0.00957136  0.25150666  0.02660004 -0.01291165 -0.02385128
               TOTAL  0.22597803  0.31897230  0.04466221  0.03086881  0.02706929

                         71          72
       FREQUENCY:      3305.80     3323.94  
    REDUCED MASS:      1.09509     1.10166
    IR INTENSITY:      0.00861     0.02488

  1   RU           X -0.00004023  0.00012527
                   Y -0.00005715 -0.00005592
                   Z  0.00011119  0.00008693
  2   BR           X  0.00000069  0.00000488
                   Y  0.00000038 -0.00000614
                   Z -0.00000397 -0.00000959
  3   C            X  0.00001271 -0.00003728
                   Y  0.00004477 -0.00010266
                   Z -0.00008343  0.00003957
  4   O            X -0.00004022 -0.00001614
                   Y -0.00000732  0.00002569
                   Z  0.00001247 -0.00001532
  5   C            X  0.00013937 -0.00009132
                   Y -0.00001207 -0.00004769
                   Z -0.00018706  0.00000849
  6   O            X -0.00002231  0.00001680
                   Y  0.00002528  0.00006628
                   Z  0.00003324  0.00000374
  7   C            X  0.00024725 -0.00594492
                   Y -0.00178815  0.00557429
                   Z -0.00365616  0.01726504
  8   C            X  0.00820957  0.00716793
                   Y  0.01086444  0.00775971
                   Z  0.00851867  0.00497195
  9   C            X  0.02625582  0.01182107
                   Y  0.00711955  0.00345551
                   Z -0.01915052 -0.00793572
 10   C            X -0.01129824 -0.00382620
                   Y -0.03508258 -0.02009866
                   Z -0.05455221 -0.03385263
 11   C            X  0.03407815 -0.06489616
                   Y  0.01927644 -0.03497660
                   Z -0.00056263  0.00579100
 12   H            X -0.01596662  0.07056595
                   Y  0.01105225 -0.04027298
                   Z  0.03936394 -0.16237648
 13   H            X -0.09667616 -0.06525524
                   Y -0.11237079 -0.07408351
                   Z -0.07637696 -0.05000121
 14   H            X -0.27023678 -0.10830500
                   Y -0.06519650 -0.02580756
                   Z  0.21168892  0.08400504
 15   H            X  0.09947449  0.05220887
                   Y  0.38703473  0.21884473
                   Z  0.62023738  0.35344326
 16   H            X -0.40114954  0.71171457
                   Y -0.21845049  0.38607896
                   Z  0.03269601 -0.06457780
 17   BR           X -0.00000104  0.00000002
                   Y -0.00000080 -0.00000023
                   Z -0.00000073 -0.00000074
 18   BR           X -0.00000106  0.00000037
                   Y -0.00000186  0.00000323
                   Z  0.00000192 -0.00000215
 19   BR           X -0.00000239 -0.00000130
                   Y  0.00000147  0.00000088
                   Z -0.00000058 -0.00000098
 20   C            X  0.00002356 -0.00001147
                   Y -0.00000107 -0.00002193
                   Z -0.00001550  0.00001185
 21   C            X -0.00000237  0.00000830
                   Y -0.00000476 -0.00000242
                   Z  0.00000152 -0.00000074
 22   BR           X -0.00000105 -0.00000074
                   Y -0.00000067  0.00000093
                   Z  0.00000027 -0.00000036
 23   BR           X -0.00000085  0.00000048
                   Y -0.00000012  0.00000123
                   Z  0.00000003 -0.00000021
 24   BR           X -0.00000102  0.00000036
                   Y -0.00000068  0.00000050
                   Z -0.00000021 -0.00000091

 TRANS. SAYVETZ    X -0.00355129  0.00947745
                   Y  0.00136788  0.00267574
                   Z  0.00963993  0.00482830
               TOTAL  0.01036393  0.01096787

   ROT. SAYVETZ    X -0.04049037 -0.02434822
                   Y -0.05538140  0.01291710
                   Z -0.01827173  0.05046733
               TOTAL  0.07099596  0.05750338

 REFERENCE ON SAYVETZ CONDITIONS - A. SAYVETZ, J.CHEM.PHYS., 7, 383-389(1939).

 NOTE - THE MODES J,K ARE ORTHONORMALIZED ACCORDING TO
 SUM ON I   M(I) * (X(I,J)*X(I,K) + Y(I,J)*Y(I,K) + Z(I,J)*Z(I,K)) = DELTA(J,K)

     -------------------------------
     THERMOCHEMISTRY AT T=  298.15 K
     -------------------------------

 USING IDEAL GAS, RIGID ROTOR, HARMONIC NORMAL MODE APPROXIMATIONS.
 P=  1.01325E+05 PASCAL.
 ALL FREQUENCIES ARE SCALED BY   1.00000
 THE MOMENTS OF INERTIA ARE (IN AMU*BOHR**2)
   8569.30838 57886.71232 58386.49533
 THE ROTATIONAL SYMMETRY NUMBER IS  1.0
 THE ROTATIONAL CONSTANTS ARE (IN GHZ)
      0.21041     0.03115     0.03088
   2 IMAGINARY FREQUENCY VIBRATION(S) IS(ARE) EXCLUDED
     FROM THE FOLLOWING THERMOCHEMICAL ANALYSIS.
 THE HARMONIC ZERO POINT ENERGY IS (SCALED BY   1.000)
        0.116054 HARTREE/MOLECULE    25470.796234 CM**-1/MOLECULE 
       72.824734 KCAL/MOL              304.698687 KJ/MOL

               Q               LN Q
 ELEC.     1.00000E+00       0.000000
 TRANS.    8.88317E+08      20.604839
 ROT.      6.09200E+07      17.925072
 VIB.      4.53634E+11      26.840555
 TOT.      2.45490E+28      65.370467

              E         H         G         CV        CP        S
           KJ/MOL    KJ/MOL    KJ/MOL   J/MOL-K   J/MOL-K   J/MOL-K
 ELEC.      0.000     0.000     0.000     0.000     0.000     0.000
 TRANS.     3.718     6.197   -51.078    12.472    20.786   192.103
 ROT.       3.718     3.718   -44.435    12.472    12.472   161.508
 VIB.     358.914   358.914   238.163   292.052   292.052   405.001
 TOTAL    366.351   368.829   142.649   316.995   325.309   758.612
E(T)-E(0) = H(T)-H(0) = 54215.020

              E         H         G         CV        CP        S
         KCAL/MOL  KCAL/MOL  KCAL/MOL CAL/MOL-K CAL/MOL-K CAL/MOL-K
 ELEC.      0.000     0.000     0.000     0.000     0.000     0.000
 TRANS.     0.889     1.481   -12.208     2.981     4.968    45.914
 ROT.       0.889     0.889   -10.620     2.981     2.981    38.601
 VIB.      85.782    85.782    56.922    69.802    69.802    96.798
 TOTAL     87.560    88.152    34.094    75.764    77.751   181.313
E(T)-E(0) = H(T)-H(0) = 12957.701
 ......END OF NORMAL COORDINATE ANALYSIS......
 STEP CPU TIME =     1.09 TOTAL CPU TIME =    58467.7 (  974.5 MIN)
 TOTAL WALL CLOCK TIME=    58829.9 SECONDS, CPU UTILIZATION IS  99.38%
     1387596  WORDS OF DYNAMIC MEMORY USED
 EXECUTION OF GAMESS TERMINATED NORMALLY Wed Jun 20 00:58:38 2007
 DDI: 262808 bytes (0.3 MB / 0 MWords) used by master data server.

 ----------------------------------------
 CPU timing information for all processes
 ========================================
 0: 57772.453000 + 695.296000 = 58467.749000
 1: 0.015000 + 0.015000 = 0.030000
 ----------------------------------------
 ddikick.x: exited gracefully.
----- accounting info -----
