 Entering Link 1 = C:\G03W\l1.exe PID=      2856.
  
 Copyright (c) 1988,1990,1992,1993,1995,1998,2003,2004, Gaussian, Inc.
                  All Rights Reserved.
  
 This is the Gaussian(R) 03 program.  It is based on the
 the Gaussian(R) 98 system (copyright 1998, Gaussian, Inc.),
 the Gaussian(R) 94 system (copyright 1995, Gaussian, Inc.),
 the Gaussian 92(TM) system (copyright 1992, Gaussian, Inc.),
 the Gaussian 90(TM) system (copyright 1990, Gaussian, Inc.),
 the Gaussian 88(TM) system (copyright 1988, Gaussian, Inc.),
 the Gaussian 86(TM) system (copyright 1986, Carnegie Mellon
 University), and the Gaussian 82(TM) system (copyright 1983,
 Carnegie Mellon University). Gaussian is a federally registered
 trademark of Gaussian, Inc.
  
 This software contains proprietary and confidential information,
 including trade secrets, belonging to Gaussian, Inc.
  
 This software is provided under written license and may be
 used, copied, transmitted, or stored only in accord with that
 written license.
  
 The following legend is applicable only to US Government
 contracts under FAR:
  
                    RESTRICTED RIGHTS LEGEND
  
 Use, reproduction and disclosure by the US Government is
 subject to restrictions as set forth in subparagraphs (a)
 and (c) of the Commercial Computer Software - Restricted
 Rights clause in FAR 52.227-19.
  
 Gaussian, Inc.
 340 Quinnipiac St., Bldg. 40, Wallingford CT 06492
  
  
 ---------------------------------------------------------------
 Warning -- This program may not be used in any manner that
 competes with the business of Gaussian, Inc. or will provide
 assistance to any competitor of Gaussian, Inc.  The licensee
 of this program is prohibited from giving any competitor of
 Gaussian, Inc. access to this program.  By using this program,
 the user acknowledges that Gaussian, Inc. is engaged in the
 business of creating and licensing software in the field of
 computational chemistry and represents and warrants to the
 licensee that it is not a competitor of Gaussian, Inc. and that
 it will not use this program in any manner prohibited above.
 ---------------------------------------------------------------
  

 Cite this work as:
 Gaussian 03, Revision D.01,
 M. J. Frisch, G. W. Trucks, H. B. Schlegel, G. E. Scuseria, 
 M. A. Robb, J. R. Cheeseman, J. A. Montgomery, Jr., T. Vreven, 
 K. N. Kudin, J. C. Burant, J. M. Millam, S. S. Iyengar, J. Tomasi, 
 V. Barone, B. Mennucci, M. Cossi, G. Scalmani, N. Rega, 
 G. A. Petersson, H. Nakatsuji, M. Hada, M. Ehara, K. Toyota, 
 R. Fukuda, J. Hasegawa, M. Ishida, T. Nakajima, Y. Honda, O. Kitao, 
 H. Nakai, M. Klene, X. Li, J. E. Knox, H. P. Hratchian, J. B. Cross, 
 V. Bakken, C. Adamo, J. Jaramillo, R. Gomperts, R. E. Stratmann, 
 O. Yazyev, A. J. Austin, R. Cammi, C. Pomelli, J. W. Ochterski, 
 P. Y. Ayala, K. Morokuma, G. A. Voth, P. Salvador, J. J. Dannenberg, 
 V. G. Zakrzewski, S. Dapprich, A. D. Daniels, M. C. Strain, 
 O. Farkas, D. K. Malick, A. D. Rabuck, K. Raghavachari, 
 J. B. Foresman, J. V. Ortiz, Q. Cui, A. G. Baboul, S. Clifford, 
 J. Cioslowski, B. B. Stefanov, G. Liu, A. Liashenko, P. Piskorz, 
 I. Komaromi, R. L. Martin, D. J. Fox, T. Keith, M. A. Al-Laham, 
 C. Y. Peng, A. Nanayakkara, M. Challacombe, P. M. W. Gill, 
 B. Johnson, W. Chen, M. W. Wong, C. Gonzalez, and J. A. Pople, 
 Gaussian, Inc., Wallingford CT, 2004.
 
 ******************************************
 Gaussian 03:  IA32W-G03RevD.01 13-Oct-2005
                12-Aug-2007 
 ******************************************
 %chk=ClSiH3
 --------------------------------------
 #p b3lyp/6-311+G* gfprint opt pop=full
 --------------------------------------
 1/14=-1,18=20,26=3,38=1/1,3;
 2/9=110,17=6,18=5,40=1/2;
 3/5=4,6=6,7=11,11=2,16=1,24=100,25=1,30=1,74=-5/1,2,3;
 4//1;
 5/5=2,38=5/2;
 6/7=3,28=1/1;
 7//1,2,3,16;
 1/14=-1,18=20/3(3);
 2/9=110/2;
 6/7=3,19=2,28=1/1;
 99//99;
 2/9=110/2;
 3/5=4,6=6,7=11,11=2,16=1,25=1,30=1,74=-5/1,2,3;
 4/5=5,16=3/1;
 5/5=2,38=5/2;
 7//1,2,3,16;
 1/14=-1,18=20/3(-5);
 2/9=110/2;
 6/7=3,19=2,28=1/1;
 99/9=1/99;
 Leave Link    1 at Sun Aug 12 17:16:46 2007, MaxMem=          0 cpu:       1.0
 (Enter C:\G03W\l101.exe)
 ------
 ClSiH3
 ------
 Symbolic Z-matrix:
 Charge =  0 Multiplicity = 1
 Cl
 Si                   1     1.95 
 H                    2     1.5      1     109.5 
 H                    2     1.5      1     109.5    3     120.     0
 H                    2     1.5      1     109.5    3    -120.     0
 
                    Isotopes and Nuclear Properties:
 (Nuclear quadrupole moments (NQMom) in fm**2, nuclear magnetic moments (NMagM)
  in nuclear magnetons)

  Atom         1           2           3           4           5
 IAtWgt=          35          28           1           1           1
 AtmWgt=  34.9688527  27.9769284   1.0078250   1.0078250   1.0078250
 NucSpn=           3           0           1           1           1
 AtZEff=   0.0000000   0.0000000   0.0000000   0.0000000   0.0000000
 NQMom=   -8.1650000   0.0000000   0.0000000   0.0000000   0.0000000
 NMagM=    0.8218740   0.0000000   2.7928460   2.7928460   2.7928460
 Leave Link  101 at Sun Aug 12 17:16:47 2007, MaxMem=    6291456 cpu:       1.0
 (Enter C:\G03W\l103.exe)

 GradGradGradGradGradGradGradGradGradGradGradGradGradGradGradGradGradGrad
 Berny optimization.
 Initialization pass.
                           ----------------------------
                           !    Initial Parameters    !
                           ! (Angstroms and Degrees)  !
 --------------------------                            --------------------------
 ! Name  Definition              Value          Derivative Info.                !
 --------------------------------------------------------------------------------
 ! R1    R(1,2)                  1.95           estimate D2E/DX2                !
 ! R2    R(2,3)                  1.5            estimate D2E/DX2                !
 ! R3    R(2,4)                  1.5            estimate D2E/DX2                !
 ! R4    R(2,5)                  1.5            estimate D2E/DX2                !
 ! A1    A(1,2,3)              109.5            estimate D2E/DX2                !
 ! A2    A(1,2,4)              109.5            estimate D2E/DX2                !
 ! A3    A(1,2,5)              109.5            estimate D2E/DX2                !
 ! A4    A(3,2,4)              109.4424         estimate D2E/DX2                !
 ! A5    A(3,2,5)              109.4424         estimate D2E/DX2                !
 ! A6    A(4,2,5)              109.4424         estimate D2E/DX2                !
 --------------------------------------------------------------------------------
 Trust Radius=3.00D-01 FncErr=1.00D-07 GrdErr=1.00D-06
 Number of steps in this run=  20 maximum allowed number of steps= 100.
 GradGradGradGradGradGradGradGradGradGradGradGradGradGradGradGradGradGrad

 Leave Link  103 at Sun Aug 12 17:16:47 2007, MaxMem=    6291456 cpu:       0.0
 (Enter C:\G03W\l202.exe)
                          Input orientation:                          
 ---------------------------------------------------------------------
 Center     Atomic     Atomic              Coordinates (Angstroms)
 Number     Number      Type              X           Y           Z
 ---------------------------------------------------------------------
    1         17             0        0.000000    0.000000    0.000000
    2         14             0        0.000000    0.000000    1.950000
    3          1             0        1.413962    0.000000    2.450710
    4          1             0       -0.706981    1.224527    2.450710
    5          1             0       -0.706981   -1.224527    2.450710
 ---------------------------------------------------------------------
                    Distance matrix (angstroms):
                    1          2          3          4          5
     1  Cl   0.000000
     2  Si   1.950000   0.000000
     3  H    2.829359   1.500000   0.000000
     4  H    2.829359   1.500000   2.449054   0.000000
     5  H    2.829359   1.500000   2.449054   2.449054   0.000000
 Stoichiometry    ClH3Si
 Framework group  C3V[C3(SiCl),3SGV(H)]
 Deg. of freedom     3
 Full point group                 C3V
 Largest Abelian subgroup         CS      NOp   2
 Largest concise Abelian subgroup CS      NOp   2
                         Standard orientation:                         
 ---------------------------------------------------------------------
 Center     Atomic     Atomic              Coordinates (Angstroms)
 Number     Number      Type              X           Y           Z
 ---------------------------------------------------------------------
    1         17             0        0.000000    0.000000    1.019180
    2         14             0        0.000000    0.000000   -0.930820
    3          1             0        0.000000    1.413962   -1.431530
    4          1             0        1.224527   -0.706981   -1.431530
    5          1             0       -1.224527   -0.706981   -1.431530
 ---------------------------------------------------------------------
 Rotational constants (GHZ):     83.6055633      7.2862734      7.2862734
 Leave Link  202 at Sun Aug 12 17:16:47 2007, MaxMem=    6291456 cpu:       0.0
 (Enter C:\G03W\l301.exe)
 Standard basis: 6-311+G(d) (5D, 7F)
 ***********************************************************************************************************************************
 *             ATOMIC CENTER             *        ATOMIC ORBITAL       *                     GAUSSIAN FUNCTIONS                    *
 ***********************************************************************************************************************************
 *                                       * FUNCTION    SHELL    SCALE  *                                                           *
 *    ATOM   X-COORD  Y-COORD  Z-COORD   *  NUMBER     TYPE     FACTOR *  EXPONENT    S-COEF      P-COEF      D-COEF      F-COEF   *
 ***********************************************************************************************************************************
 *     Cl     0.00000  0.00000 -2.04358                                                                                            *
+                                                1     S         1.00                                                               
+                                                                      0.105819D+060.738000D-030.000000D+000.000000D+000.000000D+00 
 *                                                                     0.158720D+050.571800D-020.000000D+000.000000D+000.000000D+00*
 *                                                                     0.361965D+040.294950D-010.000000D+000.000000D+000.000000D+00*
 *                                                                     0.103080D+040.117286D+000.000000D+000.000000D+000.000000D+00*
 *                                                                     0.339908D+030.362949D+000.000000D+000.000000D+000.000000D+00*
 *                                                                     0.124538D+030.584149D+000.000000D+000.000000D+000.000000D+00*
 *                                               2     S         1.00                                                              *
+                                                                      0.124538D+030.134177D+000.000000D+000.000000D+000.000000D+00 
 *                                                                     0.495135D+020.624250D+000.000000D+000.000000D+000.000000D+00*
 *                                                                     0.208056D+020.291756D+000.000000D+000.000000D+000.000000D+00*
 *                                               3     S         1.00                                                              *
+                                                                      0.658346D+010.100000D+010.000000D+000.000000D+000.000000D+00 
 *                                               4     S         1.00                                                              *
+                                                                      0.256468D+010.100000D+010.000000D+000.000000D+000.000000D+00 
 *                                               5     S         1.00                                                              *
+                                                                      0.559763D+000.100000D+010.000000D+000.000000D+000.000000D+00 
 *                                               6     S         1.00                                                              *
+                                                                      0.183273D+000.100000D+010.000000D+000.000000D+000.000000D+00 
 *                                           7-  9     P         1.00                                                              *
+                                                                      0.589776D+030.000000D+000.239100D-020.000000D+000.000000D+00 
 *                                                                     0.139849D+030.000000D+000.185040D-010.000000D+000.000000D+00*
 *                                                                     0.451413D+020.000000D+000.813770D-010.000000D+000.000000D+00*
 *                                                                     0.168733D+020.000000D+000.221552D+000.000000D+000.000000D+00*
 *                                                                     0.674110D+010.000000D+000.772569D+000.000000D+000.000000D+00*
 *                                          10- 12     P         1.00                                                              *
+                                                                      0.674110D+010.000000D+00-.157224D+010.000000D+000.000000D+00 
 *                                                                     0.277152D+010.000000D+000.992389D+000.000000D+000.000000D+00*
 *                                          13- 15     P         1.00                                                              *
+                                                                      0.102387D+010.000000D+000.100000D+010.000000D+000.000000D+00 
 *                                          16- 18     P         1.00                                                              *
+                                                                      0.381368D+000.000000D+000.100000D+010.000000D+000.000000D+00 
 *                                          19- 21     P         1.00                                                              *
+                                                                      0.109437D+000.000000D+000.100000D+010.000000D+000.000000D+00 
 *                                          22- 25     SP        1.00                                                              *
+                                                                      0.483000D-010.100000D+010.100000D+010.000000D+000.000000D+00 
 *                                          26- 30     5D        1.00                                                              *
+                                                                      0.750000D+000.000000D+000.000000D+000.100000D+010.000000D+00 
 *---------------------------------------------------------------------------------------------------------------------------------*
 *     Si     0.00000  0.00000  1.88867                                                                                            *
+                                               31     S         1.00                                                               
+                                                                      0.693792D+050.757000D-030.000000D+000.000000D+000.000000D+00 
 *                                                                     0.103549D+050.593200D-020.000000D+000.000000D+000.000000D+00*
 *                                                                     0.233388D+040.310880D-010.000000D+000.000000D+000.000000D+00*
 *                                                                     0.657143D+030.124967D+000.000000D+000.000000D+000.000000D+00*
 *                                                                     0.214301D+030.386897D+000.000000D+000.000000D+000.000000D+00*
 *                                                                     0.776292D+020.554888D+000.000000D+000.000000D+000.000000D+00*
 *                                              32     S         1.00                                                              *
+                                                                      0.776292D+020.177881D+000.000000D+000.000000D+000.000000D+00 
 *                                                                     0.306308D+020.627765D+000.000000D+000.000000D+000.000000D+00*
 *                                                                     0.128013D+020.247623D+000.000000D+000.000000D+000.000000D+00*
 *                                              33     S         1.00                                                              *
+                                                                      0.392687D+010.100000D+010.000000D+000.000000D+000.000000D+00 
 *                                              34     S         1.00                                                              *
+                                                                      0.145234D+010.100000D+010.000000D+000.000000D+000.000000D+00 
 *                                              35     S         1.00                                                              *
+                                                                      0.256234D+000.100000D+010.000000D+000.000000D+000.000000D+00 
 *                                              36     S         1.00                                                              *
+                                                                      0.942790D-010.100000D+010.000000D+000.000000D+000.000000D+00 
 *                                          37- 39     P         1.00                                                              *
+                                                                      0.335483D+030.000000D+000.886600D-020.000000D+000.000000D+00 
 *                                                                     0.789004D+020.000000D+000.682990D-010.000000D+000.000000D+00*
 *                                                                     0.249882D+020.000000D+000.290958D+000.000000D+000.000000D+00*
 *                                                                     0.921971D+010.000000D+000.732117D+000.000000D+000.000000D+00*
 *                                          40- 42     P         1.00                                                              *
+                                                                      0.362114D+010.000000D+000.619879D+000.000000D+000.000000D+00 
 *                                                                     0.145131D+010.000000D+000.439148D+000.000000D+000.000000D+00*
 *                                          43- 45     P         1.00                                                              *
+                                                                      0.504977D+000.000000D+000.100000D+010.000000D+000.000000D+00 
 *                                          46- 48     P         1.00                                                              *
+                                                                      0.186317D+000.000000D+000.100000D+010.000000D+000.000000D+00 
 *                                          49- 51     P         1.00                                                              *
+                                                                      0.654320D-010.000000D+000.100000D+010.000000D+000.000000D+00 
 *                                          52- 55     SP        1.00                                                              *
+                                                                      0.331000D-010.100000D+010.100000D+010.000000D+000.000000D+00 
 *                                          56- 60     5D        1.00                                                              *
+                                                                      0.450000D+000.000000D+000.000000D+000.100000D+010.000000D+00 
 *---------------------------------------------------------------------------------------------------------------------------------*
 *     H      2.65176  0.00000  2.76646                                                                                            *
+                                               61     S         1.00                                                               
+                                                                      0.338650D+020.254938D-010.000000D+000.000000D+000.000000D+00 
 *                                                                     0.509479D+010.190373D+000.000000D+000.000000D+000.000000D+00*
 *                                                                     0.115879D+010.852161D+000.000000D+000.000000D+000.000000D+00*
 *                                              62     S         1.00                                                              *
+                                                                      0.325840D+000.100000D+010.000000D+000.000000D+000.000000D+00 
 *                                              63     S         1.00                                                              *
+                                                                      0.102741D+000.100000D+010.000000D+000.000000D+000.000000D+00 
 *---------------------------------------------------------------------------------------------------------------------------------*
 *     H     -1.32588  2.29649  2.76646                                                                                            *
+                                               64     S         1.00                                                               
+                                                                      0.338650D+020.254938D-010.000000D+000.000000D+000.000000D+00 
 *                                                                     0.509479D+010.190373D+000.000000D+000.000000D+000.000000D+00*
 *                                                                     0.115879D+010.852161D+000.000000D+000.000000D+000.000000D+00*
 *                                              65     S         1.00                                                              *
+                                                                      0.325840D+000.100000D+010.000000D+000.000000D+000.000000D+00 
 *                                              66     S         1.00                                                              *
+                                                                      0.102741D+000.100000D+010.000000D+000.000000D+000.000000D+00 
 *---------------------------------------------------------------------------------------------------------------------------------*
 *     H     -1.32588 -2.29649  2.76646                                                                                            *
+                                               67     S         1.00                                                               
+                                                                      0.338650D+020.254938D-010.000000D+000.000000D+000.000000D+00 
 *                                                                     0.509479D+010.190373D+000.000000D+000.000000D+000.000000D+00*
 *                                                                     0.115879D+010.852161D+000.000000D+000.000000D+000.000000D+00*
 *                                              68     S         1.00                                                              *
+                                                                      0.325840D+000.100000D+010.000000D+000.000000D+000.000000D+00 
 *                                              69     S         1.00                                                              *
+                                                                      0.102741D+000.100000D+010.000000D+000.000000D+000.000000D+00 
 ***********************************************************************************************************************************
 There are    50 symmetry adapted basis functions of A'  symmetry.
 There are    19 symmetry adapted basis functions of A"  symmetry.
 Integral buffers will be    262144 words long.
 Raffenetti 2 integral format.
 Two-electron integral symmetry is turned on.
    69 basis functions,   118 primitive gaussians,    71 cartesian basis functions
    17 alpha electrons       17 beta electrons
       nuclear repulsion energy        89.5905116901 Hartrees.
 IExCor= 402 DFT=T Ex=B+HF Corr=LYP ExCW=0 ScaHFX=  0.200000
 ScaDFX=  0.800000  0.720000  1.000000  0.810000
 IRadAn=      0 IRanWt=     -1 IRanGd=            0 ICorTp=0
 NAtoms=    5 NActive=    5 NUniq=    3 SFac= 2.08D+00 NAtFMM=   80 NAOKFM=F Big=F
 Leave Link  301 at Sun Aug 12 17:16:48 2007, MaxMem=    6291456 cpu:       0.0
 (Enter C:\G03W\l302.exe)
 NPDir=0 NMtPBC=     1 NCelOv=     1 NCel=       1 NClECP=     1 NCelD=      1
         NCelK=      1 NCelE2=     1 NClLst=     1 CellRange=     0.0.
 One-electron integrals computed using PRISM.
 One-electron integral symmetry used in STVInt
 NBasis=    69 RedAO= T  NBF=    50    19
 NBsUse=    69 1.00D-06 NBFU=    50    19
 Precomputing XC quadrature grid using
 IXCGrd= 2 IRadAn=           0 IRanWt=          -1 IRanGd=           0.
 NRdTot=     318 NPtTot=       39962 NUsed=       41404 NTot=       41420
 NSgBfM=    69    69    69    69.
 Leave Link  302 at Sun Aug 12 17:16:48 2007, MaxMem=    6291456 cpu:       0.0
 (Enter C:\G03W\l303.exe)
 DipDrv:  MaxL=1.
 Leave Link  303 at Sun Aug 12 17:16:48 2007, MaxMem=    6291456 cpu:       0.0
 (Enter C:\G03W\l401.exe)
 Harris functional with IExCor=  402 diagonalized for initial guess.
 ExpMin= 3.31D-02 ExpMax= 1.06D+05 ExpMxC= 3.62D+03 IAcc=3 IRadAn=         5 AccDes= 0.00D+00
 HarFok:  IExCor= 402 AccDes= 0.00D+00 IRadAn=         5 IDoV=1
 ScaDFX=  1.000000  1.000000  1.000000  1.000000
 Harris En= -751.555810656339    
 Initial guess orbital symmetries:
       Occupied  (A1) (A1) (A1) (A1) (E) (E) (A1) (A1) (E) (E)
                 (A1) (A1) (A1) (E) (E) (E) (E)
       Virtual   (A1) (A1) (E) (E) (E) (E) (A1) (A1) (E) (E) (A1)
                 (A1) (E) (E) (A1) (E) (E) (A1) (A1) (E) (E) (A1)
                 (E) (E) (A1) (E) (E) (E) (E) (A1) (E) (E) (E)
                 (E) (A1) (A1) (E) (E) (A1) (E) (E) (A1) (A1) (A1)
                 (E) (E) (A1) (E) (E) (A1) (A1) (A1)
 The electronic state of the initial guess is 1-A1.
 Leave Link  401 at Sun Aug 12 17:16:50 2007, MaxMem=    6291456 cpu:       1.0
 (Enter C:\G03W\l502.exe)
 Closed shell SCF:
 Requested convergence on RMS density matrix=1.00D-08 within 128 cycles.
 Requested convergence on MAX density matrix=1.00D-06.
 Requested convergence on             energy=1.00D-06.
 No special actions if energy rises.
 Using DIIS extrapolation, IDIIS=  1040.
 Integral symmetry usage will be decided dynamically.
        41403 words used for storage of precomputed grid.
 Keep R1 integrals in memory in canonical form, NReq=     5049114.
 IEnd=     75791 IEndB=     75791 NGot=   6291456 MDV=   2969558
 LenX=   2969558
 Symmetry not used in FoFDir.
 MinBra= 0 MaxBra= 2 Meth= 1.
 IRaf=       0 NMat=   1 IRICut=       1 DoRegI=T DoRafI=F ISym2E= 0 JSym2E=0.

 Cycle   1  Pass 1  IDiag  1:
 E= -751.562701184632    
 DIIS: error= 1.60D-02 at cycle   1 NSaved=   1.
 NSaved= 1 IEnMin= 1 EnMin= -751.562701184632     IErMin= 1 ErrMin= 1.60D-02
 ErrMax= 1.60D-02 EMaxC= 1.00D-01 BMatC= 2.42D-02 BMatP= 2.42D-02
 IDIUse=3 WtCom= 8.40D-01 WtEn= 1.60D-01
 Coeff-Com:  0.100D+01
 Coeff-En:   0.100D+01
 Coeff:      0.100D+01
 Gap=     0.304 Goal=   None    Shift=    0.000
 GapD=    0.304 DampG=1.000 DampE=0.500 DampFc=0.5000 IDamp=-1.
 Damping current iteration by 5.00D-01
 RMSDP=2.63D-03 MaxDP=5.98D-02              OVMax= 4.64D-02

 Cycle   2  Pass 1  IDiag  1:
 E= -751.570653527032     Delta-E=       -0.007952342399 Rises=F Damp=T
 DIIS: error= 8.27D-03 at cycle   2 NSaved=   2.
 NSaved= 2 IEnMin= 2 EnMin= -751.570653527032     IErMin= 2 ErrMin= 8.27D-03
 ErrMax= 8.27D-03 EMaxC= 1.00D-01 BMatC= 4.59D-03 BMatP= 2.42D-02
 IDIUse=3 WtCom= 9.17D-01 WtEn= 8.27D-02
 Coeff-Com: -0.524D+00 0.152D+01
 Coeff-En:   0.000D+00 0.100D+01
 Coeff:     -0.481D+00 0.148D+01
 Gap=     0.318 Goal=   None    Shift=    0.000
 RMSDP=7.38D-04 MaxDP=1.26D-02 DE=-7.95D-03 OVMax= 2.18D-02

 Cycle   3  Pass 1  IDiag  1:
 E= -751.576981289766     Delta-E=       -0.006327762735 Rises=F Damp=F
 DIIS: error= 2.40D-03 at cycle   3 NSaved=   3.
 NSaved= 3 IEnMin= 3 EnMin= -751.576981289766     IErMin= 3 ErrMin= 2.40D-03
 ErrMax= 2.40D-03 EMaxC= 1.00D-01 BMatC= 8.59D-04 BMatP= 4.59D-03
 IDIUse=3 WtCom= 9.76D-01 WtEn= 2.40D-02
 Coeff-Com: -0.291D+00 0.641D+00 0.650D+00
 Coeff-En:   0.000D+00 0.000D+00 0.100D+01
 Coeff:     -0.284D+00 0.626D+00 0.659D+00
 Gap=     0.313 Goal=   None    Shift=    0.000
 RMSDP=4.55D-04 MaxDP=9.31D-03 DE=-6.33D-03 OVMax= 1.04D-02

 Cycle   4  Pass 1  IDiag  1:
 E= -751.577696560559     Delta-E=       -0.000715270793 Rises=F Damp=F
 DIIS: error= 6.12D-04 at cycle   4 NSaved=   4.
 NSaved= 4 IEnMin= 4 EnMin= -751.577696560559     IErMin= 4 ErrMin= 6.12D-04
 ErrMax= 6.12D-04 EMaxC= 1.00D-01 BMatC= 1.47D-05 BMatP= 8.59D-04
 IDIUse=3 WtCom= 9.94D-01 WtEn= 6.12D-03
 Coeff-Com: -0.784D-01 0.165D+00 0.224D+00 0.689D+00
 Coeff-En:   0.000D+00 0.000D+00 0.000D+00 0.100D+01
 Coeff:     -0.779D-01 0.164D+00 0.223D+00 0.691D+00
 Gap=     0.313 Goal=   None    Shift=    0.000
 RMSDP=9.81D-05 MaxDP=1.10D-03 DE=-7.15D-04 OVMax= 2.09D-03

 Cycle   5  Pass 1  IDiag  1:
 E= -751.577715470650     Delta-E=       -0.000018910092 Rises=F Damp=F
 DIIS: error= 1.63D-04 at cycle   5 NSaved=   5.
 NSaved= 5 IEnMin= 5 EnMin= -751.577715470650     IErMin= 5 ErrMin= 1.63D-04
 ErrMax= 1.63D-04 EMaxC= 1.00D-01 BMatC= 1.10D-06 BMatP= 1.47D-05
 IDIUse=3 WtCom= 9.98D-01 WtEn= 1.63D-03
 Coeff-Com: -0.231D-01 0.472D-01 0.651D-01 0.291D+00 0.620D+00
 Coeff-En:   0.000D+00 0.000D+00 0.000D+00 0.000D+00 0.100D+01
 Coeff:     -0.231D-01 0.471D-01 0.650D-01 0.291D+00 0.620D+00
 Gap=     0.312 Goal=   None    Shift=    0.000
 RMSDP=1.66D-05 MaxDP=3.26D-04 DE=-1.89D-05 OVMax= 3.28D-04

 Cycle   6  Pass 1  IDiag  1:
 E= -751.577716633453     Delta-E=       -0.000001162802 Rises=F Damp=F
 DIIS: error= 1.74D-05 at cycle   6 NSaved=   6.
 NSaved= 6 IEnMin= 6 EnMin= -751.577716633453     IErMin= 6 ErrMin= 1.74D-05
 ErrMax= 1.74D-05 EMaxC= 1.00D-01 BMatC= 3.05D-08 BMatP= 1.10D-06
 IDIUse=1 WtCom= 1.00D+00 WtEn= 0.00D+00
 Coeff-Com: -0.485D-02 0.943D-02 0.108D-01 0.670D-01 0.185D+00 0.732D+00
 Coeff:     -0.485D-02 0.943D-02 0.108D-01 0.670D-01 0.185D+00 0.732D+00
 Gap=     0.312 Goal=   None    Shift=    0.000
 RMSDP=2.69D-06 MaxDP=5.70D-05 DE=-1.16D-06 OVMax= 5.00D-05

 Cycle   7  Pass 1  IDiag  1:
 E= -751.577716662567     Delta-E=       -0.000000029114 Rises=F Damp=F
 DIIS: error= 2.48D-06 at cycle   7 NSaved=   7.
 NSaved= 7 IEnMin= 7 EnMin= -751.577716662567     IErMin= 7 ErrMin= 2.48D-06
 ErrMax= 2.48D-06 EMaxC= 1.00D-01 BMatC= 5.22D-10 BMatP= 3.05D-08
 IDIUse=1 WtCom= 1.00D+00 WtEn= 0.00D+00
 Coeff-Com: -0.474D-03 0.904D-03 0.436D-03 0.466D-02 0.160D-01 0.148D+00
 Coeff-Com:  0.830D+00
 Coeff:     -0.474D-03 0.904D-03 0.436D-03 0.466D-02 0.160D-01 0.148D+00
 Coeff:      0.830D+00
 Gap=     0.312 Goal=   None    Shift=    0.000
 RMSDP=2.53D-07 MaxDP=4.20D-06 DE=-2.91D-08 OVMax= 5.81D-06

 Cycle   8  Pass 1  IDiag  1:
 E= -751.577716662790     Delta-E=       -0.000000000223 Rises=F Damp=F
 DIIS: error= 5.36D-07 at cycle   8 NSaved=   8.
 NSaved= 8 IEnMin= 8 EnMin= -751.577716662790     IErMin= 8 ErrMin= 5.36D-07
 ErrMax= 5.36D-07 EMaxC= 1.00D-01 BMatC= 1.87D-11 BMatP= 5.22D-10
 IDIUse=1 WtCom= 1.00D+00 WtEn= 0.00D+00
 Coeff-Com:  0.924D-04-0.191D-03-0.243D-03-0.167D-02-0.471D-02 0.309D-02
 Coeff-Com:  0.141D+00 0.863D+00
 Coeff:      0.924D-04-0.191D-03-0.243D-03-0.167D-02-0.471D-02 0.309D-02
 Coeff:      0.141D+00 0.863D+00
 Gap=     0.312 Goal=   None    Shift=    0.000
 RMSDP=6.77D-08 MaxDP=7.37D-07 DE=-2.23D-10 OVMax= 1.84D-06

 Cycle   9  Pass 1  IDiag  1:
 E= -751.577716662808     Delta-E=       -0.000000000018 Rises=F Damp=F
 DIIS: error= 9.90D-09 at cycle   9 NSaved=   9.
 NSaved= 9 IEnMin= 9 EnMin= -751.577716662808     IErMin= 9 ErrMin= 9.90D-09
 ErrMax= 9.90D-09 EMaxC= 1.00D-01 BMatC= 1.13D-14 BMatP= 1.87D-11
 IDIUse=1 WtCom= 1.00D+00 WtEn= 0.00D+00
 Coeff-Com:  0.282D-05-0.548D-05-0.686D-05-0.432D-04-0.109D-03-0.633D-04
 Coeff-Com: -0.253D-02-0.338D-02 0.101D+01
 Coeff:      0.282D-05-0.548D-05-0.686D-05-0.432D-04-0.109D-03-0.633D-04
 Coeff:     -0.253D-02-0.338D-02 0.101D+01
 Gap=     0.312 Goal=   None    Shift=    0.000
 RMSDP=2.85D-09 MaxDP=4.00D-08 DE=-1.83D-11 OVMax= 6.06D-08

 SCF Done:  E(RB+HF-LYP) =  -751.577716663     A.U. after    9 cycles
             Convg  =    0.2850D-08             -V/T =  2.0020
             S**2   =   0.0000
 KE= 7.500985646549D+02 PE=-1.966678712951D+03 EE= 3.754119199428D+02
 Leave Link  502 at Sun Aug 12 17:16:56 2007, MaxMem=    6291456 cpu:       6.0
 (Enter C:\G03W\l601.exe)
 Copying SCF densities to generalized density rwf, ISCF=0 IROHF=0.

 **********************************************************************

            Population analysis using the SCF density.

 **********************************************************************

 Orbital symmetries:
       Occupied  (A1) (A1) (A1) (A1) (E) (E) (A1) (A1) (E) (E)
                 (A1) (A1) (A1) (E) (E) (E) (E)
       Virtual   (A1) (A1) (E) (E) (E) (E) (A1) (A1) (E) (E) (A1)
                 (A1) (E) (E) (A1) (E) (E) (A1) (A1) (E) (E) (A1)
                 (E) (E) (A1) (E) (E) (E) (E) (A1) (E) (E) (E)
                 (E) (A1) (A1) (E) (E) (A1) (E) (E) (A1) (A1) (A1)
                 (E) (E) (A1) (E) (E) (A1) (A1) (A1)
 The electronic state is 1-A1.
 Alpha  occ. eigenvalues -- -101.55423 -66.13944  -9.47230  -7.23413  -7.22798
 Alpha  occ. eigenvalues --   -7.22798  -5.31264  -3.67301  -3.66942  -3.66942
 Alpha  occ. eigenvalues --   -0.85845  -0.55435  -0.41150  -0.39704  -0.39704
 Alpha  occ. eigenvalues --   -0.32586  -0.32586
 Alpha virt. eigenvalues --   -0.01343  -0.00093   0.03530   0.03530   0.03999
 Alpha virt. eigenvalues --    0.03999   0.05615   0.08111   0.09392   0.09392
 Alpha virt. eigenvalues --    0.12784   0.14541   0.25009   0.25009   0.25556
 Alpha virt. eigenvalues --    0.33985   0.33985   0.39700   0.41218   0.46291
 Alpha virt. eigenvalues --    0.46291   0.50119   0.53451   0.53451   0.72408
 Alpha virt. eigenvalues --    0.79393   0.79393   0.87917   0.87917   0.93327
 Alpha virt. eigenvalues --    0.96003   0.96003   1.22415   1.22415   1.23547
 Alpha virt. eigenvalues --    1.37246   2.24753   2.24753   2.35185   2.38124
 Alpha virt. eigenvalues --    2.38124   2.50533   5.40846   9.64718  11.26353
 Alpha virt. eigenvalues --   11.26353  11.32195  25.82820  25.82820  26.20289
 Alpha virt. eigenvalues --  140.84398 215.63495
     Molecular Orbital Coefficients
                           1         2         3         4         5
                        (A1)--O   (A1)--O   (A1)--O   (A1)--O   (E)--O
     EIGENVALUES --  -101.55423 -66.13944  -9.47230  -7.23413  -7.22798
   1 1   Cl 1S          0.41161   0.00000  -0.12178  -0.00062   0.00000
   2        2S          0.65408   0.00000  -0.32689  -0.00168   0.00000
   3        3S          0.01500  -0.00001   0.49725   0.00265   0.00000
   4        4S         -0.00395   0.00001   0.61095   0.00324   0.00000
   5        5S          0.00146   0.00006   0.05821  -0.00012   0.00000
   6        6S         -0.00101  -0.00007  -0.02291  -0.00042   0.00000
   7        7PX         0.00000   0.00000   0.00000   0.00000   0.00000
   8        7PY         0.00000   0.00000   0.00000   0.00000   1.23374
   9        7PZ        -0.00011   0.00006  -0.00587   1.23330   0.00000
  10        8PX         0.00000   0.00000   0.00000   0.00000   0.00000
  11        8PY         0.00000   0.00000   0.00000   0.00000   0.33351
  12        8PZ        -0.00007   0.00005  -0.00153   0.33345   0.00000
  13        9PX         0.00000   0.00000   0.00000   0.00000   0.00000
  14        9PY         0.00000   0.00000   0.00000   0.00000   0.05255
  15        9PZ         0.00007  -0.00013  -0.00054   0.05323   0.00000
  16       10PX         0.00000   0.00000   0.00000   0.00000   0.00000
  17       10PY         0.00000   0.00000   0.00000   0.00000  -0.00082
  18       10PZ        -0.00006   0.00024  -0.00055  -0.00067   0.00000
  19       11PX         0.00000   0.00000   0.00000   0.00000   0.00000
  20       11PY         0.00000   0.00000   0.00000   0.00000  -0.00005
  21       11PZ         0.00021  -0.00023   0.00353   0.00019   0.00000
  22       12S          0.00071   0.00149   0.01520   0.00013   0.00000
  23       12PX         0.00000   0.00000   0.00000   0.00000   0.00000
  24       12PY         0.00000   0.00000   0.00000   0.00000   0.00011
  25       12PZ        -0.00024  -0.00049  -0.00469  -0.00007   0.00000
  26       13D 0       -0.00001  -0.00010   0.00017  -0.00066   0.00000
  27       13D+1        0.00000   0.00000   0.00000   0.00000   0.00000
  28       13D-1        0.00000   0.00000   0.00000   0.00000  -0.00039
  29       13D+2        0.00000   0.00000   0.00000   0.00000   0.00000
  30       13D-2        0.00000   0.00000   0.00000   0.00000   0.00000
  31 2   Si 1S          0.00000   0.41758   0.00000   0.00000   0.00000
  32        2S          0.00000   0.64679   0.00002   0.00000   0.00000
  33        3S         -0.00001   0.01400  -0.00013   0.00005   0.00000
  34        4S          0.00001  -0.00482   0.00020  -0.00013   0.00000
  35        5S         -0.00001   0.00234  -0.00018  -0.00006   0.00000
  36        6S          0.00018  -0.00271   0.00319   0.00039   0.00000
  37        7PX         0.00000   0.00000   0.00000   0.00000   0.00000
  38        7PY         0.00000   0.00000   0.00000   0.00000   0.00000
  39        7PZ         0.00000   0.00005  -0.00002   0.00000   0.00000
  40        8PX         0.00000   0.00000   0.00000   0.00000   0.00000
  41        8PY         0.00000   0.00000   0.00000   0.00000  -0.00001
  42        8PZ         0.00000  -0.00002   0.00007  -0.00003   0.00000
  43        9PX         0.00000   0.00000   0.00000   0.00000   0.00000
  44        9PY         0.00000   0.00000   0.00000   0.00000   0.00005
  45        9PZ         0.00002  -0.00002   0.00035  -0.00017   0.00000
  46       10PX         0.00000   0.00000   0.00000   0.00000   0.00000
  47       10PY         0.00000   0.00000   0.00000   0.00000  -0.00007
  48       10PZ         0.00004   0.00015   0.00060   0.00045   0.00000
  49       11PX         0.00000   0.00000   0.00000   0.00000   0.00000
  50       11PY         0.00000   0.00000   0.00000   0.00000   0.00006
  51       11PZ         0.00009  -0.00041   0.00180  -0.00025   0.00000
  52       12S         -0.00044  -0.00085  -0.00928  -0.00005   0.00000
  53       12PX         0.00000   0.00000   0.00000   0.00000   0.00000
  54       12PY         0.00000   0.00000   0.00000   0.00000  -0.00007
  55       12PZ        -0.00025  -0.00016  -0.00512   0.00006   0.00000
  56       13D 0        0.00000   0.00005  -0.00015   0.00018   0.00000
  57       13D+1        0.00000   0.00000   0.00000   0.00000   0.00000
  58       13D-1        0.00000   0.00000   0.00000   0.00000   0.00000
  59       13D+2        0.00000   0.00000   0.00000   0.00000   0.00000
  60       13D-2        0.00000   0.00000   0.00000   0.00000   0.00000
  61 3   H  1S          0.00000   0.00001   0.00008   0.00000   0.00000
  62        2S         -0.00003  -0.00011  -0.00054   0.00005   0.00001
  63        3S         -0.00002   0.00048  -0.00029  -0.00013  -0.00001
  64 4   H  1S          0.00000   0.00001   0.00008   0.00000   0.00000
  65        2S         -0.00003  -0.00011  -0.00054   0.00005  -0.00001
  66        3S         -0.00002   0.00048  -0.00029  -0.00013   0.00000
  67 5   H  1S          0.00000   0.00001   0.00008   0.00000   0.00000
  68        2S         -0.00003  -0.00011  -0.00054   0.00005  -0.00001
  69        3S         -0.00002   0.00048  -0.00029  -0.00013   0.00000
                           6         7         8         9        10
                        (E)--O    (A1)--O   (A1)--O   (E)--O    (E)--O
     EIGENVALUES --    -7.22798  -5.31264  -3.67301  -3.66942  -3.66942
   1 1   Cl 1S          0.00000   0.00002   0.00008   0.00000   0.00000
   2        2S          0.00000   0.00006   0.00023   0.00000   0.00000
   3        3S          0.00000  -0.00016  -0.00040   0.00000   0.00000
   4        4S          0.00000   0.00001  -0.00082   0.00000   0.00000
   5        5S          0.00000   0.00054   0.00152   0.00000   0.00000
   6        6S          0.00000  -0.00025   0.00020   0.00000   0.00000
   7        7PX         1.23374   0.00000   0.00000  -0.00012   0.00000
   8        7PY         0.00000   0.00000   0.00000   0.00000  -0.00012
   9        7PZ         0.00000   0.00051   0.00129   0.00000   0.00000
  10        8PX         0.33351   0.00000   0.00000  -0.00002   0.00000
  11        8PY         0.00000   0.00000   0.00000   0.00000  -0.00002
  12        8PZ         0.00000   0.00018   0.00038   0.00000   0.00000
  13        9PX         0.05255   0.00000   0.00000  -0.00001   0.00000
  14        9PY         0.00000   0.00000   0.00000   0.00000  -0.00001
  15        9PZ         0.00000  -0.00075  -0.00084   0.00000   0.00000
  16       10PX        -0.00082   0.00000   0.00000   0.00042   0.00000
  17       10PY         0.00000   0.00000   0.00000   0.00000   0.00042
  18       10PZ         0.00000   0.00217  -0.00034   0.00000   0.00000
  19       11PX        -0.00005   0.00000   0.00000  -0.00025   0.00000
  20       11PY         0.00000   0.00000   0.00000   0.00000  -0.00025
  21       11PZ         0.00000  -0.00296  -0.00121   0.00000   0.00000
  22       12S          0.00000   0.02412  -0.00218   0.00000   0.00000
  23       12PX         0.00011   0.00000   0.00000  -0.00007   0.00000
  24       12PY         0.00000   0.00000   0.00000   0.00000  -0.00007
  25       12PZ         0.00000  -0.00868   0.00190   0.00000   0.00000
  26       13D 0        0.00000  -0.00097   0.00016   0.00000   0.00000
  27       13D+1       -0.00039   0.00000   0.00000  -0.00025   0.00000
  28       13D-1        0.00000   0.00000   0.00000   0.00000  -0.00025
  29       13D+2        0.00000   0.00000   0.00000   0.00000   0.00000
  30       13D-2        0.00000   0.00000   0.00000   0.00000   0.00000
  31 2   Si 1S          0.00000  -0.11702   0.00074   0.00000   0.00000
  32        2S          0.00000  -0.30377   0.00197   0.00000   0.00000
  33        3S          0.00000   0.53572  -0.00388   0.00000   0.00000
  34        4S          0.00000   0.57210  -0.00335   0.00000   0.00000
  35        5S          0.00000   0.06238   0.00103   0.00000   0.00000
  36        6S          0.00000  -0.04979  -0.00111   0.00000   0.00000
  37        7PX         0.00000   0.00000   0.00000   0.40391   0.00000
  38        7PY         0.00000   0.00000   0.00000   0.00000   0.40391
  39        7PZ         0.00000   0.00199   0.40359   0.00000   0.00000
  40        8PX        -0.00001   0.00000   0.00000   0.68832   0.00000
  41        8PY         0.00000   0.00000   0.00000   0.00000   0.68832
  42        8PZ         0.00000   0.00417   0.68807   0.00000   0.00000
  43        9PX         0.00005   0.00000   0.00000   0.06140   0.00000
  44        9PY         0.00000   0.00000   0.00000   0.00000   0.06140
  45        9PZ         0.00000   0.00034   0.06243   0.00000   0.00000
  46       10PX        -0.00007   0.00000   0.00000  -0.01105   0.00000
  47       10PY         0.00000   0.00000   0.00000   0.00000  -0.01105
  48       10PZ         0.00000   0.00200  -0.01129   0.00000   0.00000
  49       11PX         0.00006   0.00000   0.00000   0.00672   0.00000
  50       11PY         0.00000   0.00000   0.00000   0.00000   0.00672
  51       11PZ         0.00000  -0.00668   0.00747   0.00000   0.00000
  52       12S          0.00000  -0.01257   0.00142   0.00000   0.00000
  53       12PX        -0.00007   0.00000   0.00000  -0.00258   0.00000
  54       12PY         0.00000   0.00000   0.00000   0.00000  -0.00258
  55       12PZ         0.00000  -0.00262  -0.00263   0.00000   0.00000
  56       13D 0        0.00000   0.00082   0.00175   0.00000   0.00000
  57       13D+1        0.00000   0.00000   0.00000   0.00058   0.00000
  58       13D-1        0.00000   0.00000   0.00000   0.00000   0.00058
  59       13D+2        0.00000   0.00000   0.00000   0.00000  -0.00024
  60       13D-2        0.00000   0.00000   0.00000  -0.00024   0.00000
  61 3   H  1S          0.00000   0.00000  -0.00021   0.00000   0.00058
  62        2S          0.00000  -0.00120  -0.00022   0.00000   0.00120
  63        3S          0.00000   0.00744   0.00076   0.00000  -0.00114
  64 4   H  1S          0.00000   0.00000  -0.00021   0.00050  -0.00029
  65        2S          0.00001  -0.00120  -0.00022   0.00104  -0.00060
  66        3S          0.00000   0.00744   0.00076  -0.00099   0.00057
  67 5   H  1S          0.00000   0.00000  -0.00021  -0.00050  -0.00029
  68        2S         -0.00001  -0.00120  -0.00022  -0.00104  -0.00060
  69        3S          0.00000   0.00744   0.00076   0.00099   0.00057
                          11        12        13        14        15
                        (A1)--O   (A1)--O   (A1)--O   (E)--O    (E)--O
     EIGENVALUES --    -0.85845  -0.55435  -0.41150  -0.39704  -0.39704
   1 1   Cl 1S          0.03613  -0.01181   0.00550   0.00000   0.00000
   2        2S          0.10332  -0.03397   0.01591   0.00000   0.00000
   3        3S         -0.20864   0.07028  -0.03380   0.00000   0.00000
   4        4S         -0.39025   0.12781  -0.05769   0.00000   0.00000
   5        5S          0.59509  -0.20248   0.08835   0.00000   0.00000
   6        6S          0.52607  -0.22931   0.12867   0.00000   0.00000
   7        7PX         0.00000   0.00000   0.00000   0.00000  -0.20799
   8        7PY         0.00000   0.00000   0.00000  -0.20799   0.00000
   9        7PZ         0.05372   0.12811  -0.28392   0.00000   0.00000
  10        8PX         0.00000   0.00000   0.00000   0.00000  -0.05099
  11        8PY         0.00000   0.00000   0.00000  -0.05099   0.00000
  12        8PZ         0.01352   0.03170  -0.07051   0.00000   0.00000
  13        9PX         0.00000   0.00000   0.00000   0.00000   0.15210
  14        9PY         0.00000   0.00000   0.00000   0.15210   0.00000
  15        9PZ        -0.03373  -0.09024   0.21157   0.00000   0.00000
  16       10PX         0.00000   0.00000   0.00000   0.00000   0.33730
  17       10PY         0.00000   0.00000   0.00000   0.33730   0.00000
  18       10PZ        -0.08387  -0.19701   0.44281   0.00000   0.00000
  19       11PX         0.00000   0.00000   0.00000   0.00000   0.19443
  20       11PY         0.00000   0.00000   0.00000   0.19443   0.00000
  21       11PZ        -0.01673  -0.04680   0.20274   0.00000   0.00000
  22       12S         -0.07117  -0.08316   0.01966   0.00000   0.00000
  23       12PX         0.00000   0.00000   0.00000   0.00000  -0.02687
  24       12PY         0.00000   0.00000   0.00000  -0.02687   0.00000
  25       12PZ         0.01930   0.02408  -0.01138   0.00000   0.00000
  26       13D 0        0.02525   0.02517  -0.03512   0.00000   0.00000
  27       13D+1        0.00000   0.00000   0.00000   0.00000  -0.03013
  28       13D-1        0.00000   0.00000   0.00000  -0.03013   0.00000
  29       13D+2        0.00000   0.00000   0.00000  -0.00124   0.00000
  30       13D-2        0.00000   0.00000   0.00000   0.00000  -0.00124
  31 2   Si 1S          0.00878   0.02580   0.00356   0.00000   0.00000
  32        2S          0.02390   0.07060   0.00979   0.00000   0.00000
  33        3S         -0.05258  -0.15908  -0.02265   0.00000   0.00000
  34        4S         -0.08897  -0.26967  -0.03595   0.00000   0.00000
  35        5S          0.16403   0.50699   0.04749   0.00000   0.00000
  36        6S          0.02414   0.29907   0.10287   0.00000   0.00000
  37        7PX         0.00000   0.00000   0.00000   0.00000  -0.06331
  38        7PY         0.00000   0.00000   0.00000  -0.06331   0.00000
  39        7PZ        -0.02471   0.00464   0.06149   0.00000   0.00000
  40        8PX         0.00000   0.00000   0.00000   0.00000  -0.11103
  41        8PY         0.00000   0.00000   0.00000  -0.11103   0.00000
  42        8PZ        -0.04470   0.00779   0.10909   0.00000   0.00000
  43        9PX         0.00000   0.00000   0.00000   0.00000   0.13343
  44        9PY         0.00000   0.00000   0.00000   0.13343   0.00000
  45        9PZ         0.05162  -0.00417  -0.14445   0.00000   0.00000
  46       10PX         0.00000   0.00000   0.00000   0.00000   0.29146
  47       10PY         0.00000   0.00000   0.00000   0.29146   0.00000
  48       10PZ         0.05801  -0.01537  -0.24715   0.00000   0.00000
  49       11PX         0.00000   0.00000   0.00000   0.00000   0.01112
  50       11PY         0.00000   0.00000   0.00000   0.01112   0.00000
  51       11PZ        -0.02579   0.00576   0.02370   0.00000   0.00000
  52       12S          0.05172   0.04905   0.00948   0.00000   0.00000
  53       12PX         0.00000   0.00000   0.00000   0.00000   0.02280
  54       12PY         0.00000   0.00000   0.00000   0.02280   0.00000
  55       12PZ         0.03559   0.01170  -0.02206   0.00000   0.00000
  56       13D 0        0.03636  -0.00798  -0.07803   0.00000   0.00000
  57       13D+1        0.00000   0.00000   0.00000   0.00000   0.00665
  58       13D-1        0.00000   0.00000   0.00000   0.00665   0.00000
  59       13D+2        0.00000   0.00000   0.00000  -0.04711   0.00000
  60       13D-2        0.00000   0.00000   0.00000   0.00000  -0.04711
  61 3   H  1S          0.00681   0.07326   0.05894   0.12125   0.00000
  62        2S          0.01331   0.10510   0.09095   0.17001   0.00000
  63        3S         -0.00451   0.01308   0.04843   0.12436   0.00000
  64 4   H  1S          0.00681   0.07326   0.05894  -0.06062   0.10500
  65        2S          0.01331   0.10510   0.09095  -0.08500   0.14723
  66        3S         -0.00451   0.01308   0.04843  -0.06218   0.10770
  67 5   H  1S          0.00681   0.07326   0.05894  -0.06062  -0.10500
  68        2S          0.01331   0.10510   0.09095  -0.08500  -0.14723
  69        3S         -0.00451   0.01308   0.04843  -0.06218  -0.10770
                          16        17        18        19        20
                        (E)--O    (E)--O    (A1)--V   (A1)--V   (E)--V
     EIGENVALUES --    -0.32586  -0.32586  -0.01343  -0.00093   0.03530
   1 1   Cl 1S          0.00000   0.00000   0.00960   0.00149   0.00000
   2        2S          0.00000   0.00000   0.02773   0.00445   0.00000
   3        3S          0.00000   0.00000  -0.05846  -0.01068   0.00000
   4        4S          0.00000   0.00000  -0.10834  -0.01173   0.00000
   5        5S          0.00000   0.00000   0.18049  -0.00352   0.00000
   6        6S          0.00000   0.00000   0.47191   0.15735   0.00000
   7        7PX         0.00000  -0.27358   0.00000   0.00000   0.02029
   8        7PY        -0.27358   0.00000   0.00000   0.00000   0.00000
   9        7PZ         0.00000   0.00000   0.07231   0.06854   0.00000
  10        8PX         0.00000  -0.06697   0.00000   0.00000   0.00468
  11        8PY        -0.06697   0.00000   0.00000   0.00000   0.00000
  12        8PZ         0.00000   0.00000   0.01692   0.01631   0.00000
  13        9PX         0.00000   0.20412   0.00000   0.00000  -0.01415
  14        9PY         0.20412   0.00000   0.00000   0.00000   0.00000
  15        9PZ         0.00000   0.00000  -0.05126  -0.05190   0.00000
  16       10PX         0.00000   0.45302   0.00000   0.00000  -0.05137
  17       10PY         0.45302   0.00000   0.00000   0.00000   0.00000
  18       10PZ         0.00000   0.00000  -0.17635  -0.13744   0.00000
  19       11PX         0.00000   0.31208   0.00000   0.00000   0.05376
  20       11PY         0.31208   0.00000   0.00000   0.00000   0.00000
  21       11PZ         0.00000   0.00000  -0.26484  -0.25747   0.00000
  22       12S          0.00000   0.00000   1.79953  -0.74707   0.00000
  23       12PX         0.00000  -0.03271   0.00000   0.00000  -0.12349
  24       12PY        -0.03271   0.00000   0.00000   0.00000   0.00000
  25       12PZ         0.00000   0.00000  -0.59349   0.35231   0.00000
  26       13D 0        0.00000   0.00000  -0.00653  -0.03632   0.00000
  27       13D+1        0.00000  -0.01129   0.00000   0.00000   0.02616
  28       13D-1       -0.01129   0.00000   0.00000   0.00000   0.00000
  29       13D+2        0.00213   0.00000   0.00000   0.00000   0.00000
  30       13D-2        0.00000   0.00213   0.00000   0.00000  -0.00031
  31 2   Si 1S          0.00000   0.00000  -0.00244  -0.01600   0.00000
  32        2S          0.00000   0.00000  -0.00686  -0.04405   0.00000
  33        3S          0.00000   0.00000   0.01714   0.10214   0.00000
  34        4S          0.00000   0.00000   0.02257   0.18244   0.00000
  35        5S          0.00000   0.00000   0.01146  -0.33752   0.00000
  36        6S          0.00000   0.00000  -0.35132  -1.20950   0.00000
  37        7PX         0.00000   0.03748   0.00000   0.00000   0.03214
  38        7PY         0.03748   0.00000   0.00000   0.00000   0.00000
  39        7PZ         0.00000   0.00000   0.04218  -0.00316   0.00000
  40        8PX         0.00000   0.06659   0.00000   0.00000   0.05895
  41        8PY         0.06659   0.00000   0.00000   0.00000   0.00000
  42        8PZ         0.00000   0.00000   0.06992  -0.00736   0.00000
  43        9PX         0.00000  -0.09120   0.00000   0.00000  -0.10436
  44        9PY        -0.09120   0.00000   0.00000   0.00000   0.00000
  45        9PZ         0.00000   0.00000  -0.06677   0.02776   0.00000
  46       10PX         0.00000  -0.14191   0.00000   0.00000  -0.12531
  47       10PY        -0.14191   0.00000   0.00000   0.00000   0.00000
  48       10PZ         0.00000   0.00000  -0.34472  -0.09071   0.00000
  49       11PX         0.00000  -0.01774   0.00000   0.00000  -0.95418
  50       11PY        -0.01774   0.00000   0.00000   0.00000   0.00000
  51       11PZ         0.00000   0.00000  -0.84716   0.38986   0.00000
  52       12S          0.00000   0.00000  -1.68075   1.95870   0.00000
  53       12PX         0.00000   0.00534   0.00000   0.00000   1.70071
  54       12PY         0.00534   0.00000   0.00000   0.00000   0.00000
  55       12PZ         0.00000   0.00000  -0.96208  -0.26685   0.00000
  56       13D 0        0.00000   0.00000   0.09963   0.01018   0.00000
  57       13D+1        0.00000   0.07715   0.00000   0.00000  -0.00904
  58       13D-1        0.07715   0.00000   0.00000   0.00000   0.00000
  59       13D+2        0.04737   0.00000   0.00000   0.00000   0.00000
  60       13D-2        0.00000   0.04737   0.00000   0.00000   0.02489
  61 3   H  1S         -0.12085   0.00000  -0.00624   0.01138   0.00000
  62        2S         -0.21152   0.00000  -0.02134   0.06540   0.00000
  63        3S         -0.17369   0.00000  -0.10085   0.12096   0.00000
  64 4   H  1S          0.06043  -0.10466  -0.00624   0.01138  -0.01962
  65        2S          0.10576  -0.18319  -0.02134   0.06540  -0.01811
  66        3S          0.08685  -0.15042  -0.10085   0.12096   0.11317
  67 5   H  1S          0.06043   0.10466  -0.00624   0.01138   0.01962
  68        2S          0.10576   0.18319  -0.02134   0.06540   0.01811
  69        3S          0.08685   0.15042  -0.10085   0.12096  -0.11317
                          21        22        23        24        25
                        (E)--V    (E)--V    (E)--V    (A1)--V   (A1)--V
     EIGENVALUES --     0.03530   0.03999   0.03999   0.05615   0.08111
   1 1   Cl 1S          0.00000   0.00000   0.00000  -0.00529  -0.00494
   2        2S          0.00000   0.00000   0.00000  -0.01519  -0.01468
   3        3S          0.00000   0.00000   0.00000   0.03134   0.03451
   4        4S          0.00000   0.00000   0.00000   0.06311   0.04269
   5        5S          0.00000   0.00000   0.00000  -0.12537  -0.01603
   6        6S          0.00000   0.00000   0.00000  -0.10822  -0.55053
   7        7PX         0.00000   0.00000   0.07313   0.00000   0.00000
   8        7PY         0.02029   0.07313   0.00000   0.00000   0.00000
   9        7PZ         0.00000   0.00000   0.00000   0.06219  -0.10546
  10        8PX         0.00000   0.00000   0.01836   0.00000   0.00000
  11        8PY         0.00468   0.01836   0.00000   0.00000   0.00000
  12        8PZ         0.00000   0.00000   0.00000   0.01694  -0.02501
  13        9PX         0.00000   0.00000  -0.06482   0.00000   0.00000
  14        9PY        -0.01415  -0.06482   0.00000   0.00000   0.00000
  15        9PZ         0.00000   0.00000   0.00000  -0.06551   0.08226
  16       10PX         0.00000   0.00000  -0.10735   0.00000   0.00000
  17       10PY        -0.05137  -0.10735   0.00000   0.00000   0.00000
  18       10PZ         0.00000   0.00000   0.00000  -0.05516   0.21317
  19       11PX         0.00000   0.00000  -0.33883   0.00000   0.00000
  20       11PY         0.05376  -0.33883   0.00000   0.00000   0.00000
  21       11PZ         0.00000   0.00000   0.00000  -0.48942   0.67723
  22       12S          0.00000   0.00000   0.00000   0.26468  -0.94360
  23       12PX         0.00000   0.00000  -0.25243   0.00000   0.00000
  24       12PY        -0.12349  -0.25243   0.00000   0.00000   0.00000
  25       12PZ         0.00000   0.00000   0.00000   1.21928   0.88178
  26       13D 0        0.00000   0.00000   0.00000   0.03075   0.08950
  27       13D+1        0.00000   0.00000  -0.06833   0.00000   0.00000
  28       13D-1        0.02616  -0.06833   0.00000   0.00000   0.00000
  29       13D+2       -0.00031   0.01918   0.00000   0.00000   0.00000
  30       13D-2        0.00000   0.00000   0.01918   0.00000   0.00000
  31 2   Si 1S          0.00000   0.00000   0.00000   0.00714   0.00995
  32        2S          0.00000   0.00000   0.00000   0.01978   0.02749
  33        3S          0.00000   0.00000   0.00000  -0.04699  -0.06473
  34        4S          0.00000   0.00000   0.00000  -0.07799  -0.11264
  35        5S          0.00000   0.00000   0.00000   0.11252   0.15919
  36        6S          0.00000   0.00000   0.00000   0.86508   1.39167
  37        7PX         0.00000   0.00000  -0.05178   0.00000   0.00000
  38        7PY         0.03214  -0.05178   0.00000   0.00000   0.00000
  39        7PZ         0.00000   0.00000   0.00000   0.01250  -0.05502
  40        8PX         0.00000   0.00000  -0.08670   0.00000   0.00000
  41        8PY         0.05895  -0.08670   0.00000   0.00000   0.00000
  42        8PZ         0.00000   0.00000   0.00000   0.01888  -0.09755
  43        9PX         0.00000   0.00000   0.09577   0.00000   0.00000
  44        9PY        -0.10436   0.09577   0.00000   0.00000   0.00000
  45        9PZ         0.00000   0.00000   0.00000  -0.00502   0.14872
  46       10PX         0.00000   0.00000   0.44912   0.00000   0.00000
  47       10PY        -0.12531   0.44912   0.00000   0.00000   0.00000
  48       10PZ         0.00000   0.00000   0.00000  -0.16252   0.37308
  49       11PX         0.00000   0.00000   1.90348   0.00000   0.00000
  50       11PY        -0.95418   1.90348   0.00000   0.00000   0.00000
  51       11PZ         0.00000   0.00000   0.00000  -0.71373   2.00670
  52       12S          0.00000   0.00000   0.00000   0.79540   0.39531
  53       12PX         0.00000   0.00000  -0.03941   0.00000   0.00000
  54       12PY         1.70071  -0.03941   0.00000   0.00000   0.00000
  55       12PZ         0.00000   0.00000   0.00000   0.10435  -1.85505
  56       13D 0        0.00000   0.00000   0.00000   0.08792  -0.04329
  57       13D+1        0.00000   0.00000   0.06466   0.00000   0.00000
  58       13D-1       -0.00904   0.06466   0.00000   0.00000   0.00000
  59       13D+2        0.02489   0.13952   0.00000   0.00000   0.00000
  60       13D-2        0.00000   0.00000   0.13952   0.00000   0.00000
  61 3   H  1S         -0.02266  -0.08896   0.00000  -0.04361  -0.01359
  62        2S         -0.02091  -0.13189   0.00000  -0.09104  -0.04219
  63        3S          0.13068  -1.63006   0.00000  -0.50693   0.02032
  64 4   H  1S          0.01133   0.04448  -0.07704  -0.04361  -0.01359
  65        2S          0.01046   0.06595  -0.11422  -0.09104  -0.04219
  66        3S         -0.06534   0.81503  -1.41167  -0.50693   0.02032
  67 5   H  1S          0.01133   0.04448   0.07704  -0.04361  -0.01359
  68        2S          0.01046   0.06595   0.11422  -0.09104  -0.04219
  69        3S         -0.06534   0.81503   1.41167  -0.50693   0.02032
                          26        27        28        29        30
                        (E)--V    (E)--V    (A1)--V   (A1)--V   (E)--V
     EIGENVALUES --     0.09392   0.09392   0.12784   0.14541   0.25009
   1 1   Cl 1S          0.00000   0.00000  -0.00444  -0.00840   0.00000
   2        2S          0.00000   0.00000  -0.01293  -0.02471   0.00000
   3        3S          0.00000   0.00000   0.02820   0.05575   0.00000
   4        4S          0.00000   0.00000   0.04758   0.08329   0.00000
   5        5S          0.00000   0.00000  -0.06412  -0.09052   0.00000
   6        6S          0.00000   0.00000  -0.37197  -1.01048   0.00000
   7        7PX         0.10901   0.00000   0.00000   0.00000   0.00819
   8        7PY         0.00000   0.10901   0.00000   0.00000   0.00000
   9        7PZ         0.00000   0.00000  -0.09098   0.02049   0.00000
  10        8PX         0.02878   0.00000   0.00000   0.00000   0.00262
  11        8PY         0.00000   0.02878   0.00000   0.00000   0.00000
  12        8PZ         0.00000   0.00000  -0.02286   0.00607   0.00000
  13        9PX        -0.10856   0.00000   0.00000   0.00000  -0.01190
  14        9PY         0.00000  -0.10856   0.00000   0.00000   0.00000
  15        9PZ         0.00000   0.00000   0.08043  -0.02853   0.00000
  16       10PX        -0.11687   0.00000   0.00000   0.00000   0.00422
  17       10PY         0.00000  -0.11687   0.00000   0.00000   0.00000
  18       10PZ         0.00000   0.00000   0.15428   0.04037   0.00000
  19       11PX        -0.71803   0.00000   0.00000   0.00000  -0.27738
  20       11PY         0.00000  -0.71803   0.00000   0.00000   0.00000
  21       11PZ         0.00000   0.00000   0.54467  -0.63299   0.00000
  22       12S          0.00000   0.00000   0.49097   8.38158   0.00000
  23       12PX         2.06447   0.00000   0.00000   0.00000   0.23679
  24       12PY         0.00000   2.06447   0.00000   0.00000   0.00000
  25       12PZ         0.00000   0.00000  -1.46224  -2.22266   0.00000
  26       13D 0        0.00000   0.00000  -0.01571  -0.08980   0.00000
  27       13D+1        0.02018   0.00000   0.00000   0.00000   0.03420
  28       13D-1        0.00000   0.02018   0.00000   0.00000   0.00000
  29       13D+2        0.00000  -0.00073   0.00000   0.00000   0.00000
  30       13D-2       -0.00073   0.00000   0.00000   0.00000   0.00366
  31 2   Si 1S          0.00000   0.00000   0.01312  -0.00679   0.00000
  32        2S          0.00000   0.00000   0.03628  -0.01896   0.00000
  33        3S          0.00000   0.00000  -0.08591   0.04650   0.00000
  34        4S          0.00000   0.00000  -0.14721   0.07133   0.00000
  35        5S          0.00000   0.00000   0.21829  -0.05877   0.00000
  36        6S          0.00000   0.00000   1.48596  -2.22396   0.00000
  37        7PX        -0.01010   0.00000   0.00000   0.00000   0.07398
  38        7PY         0.00000  -0.01010   0.00000   0.00000   0.00000
  39        7PZ         0.00000   0.00000   0.01249  -0.00465   0.00000
  40        8PX        -0.01669   0.00000   0.00000   0.00000   0.11442
  41        8PY         0.00000  -0.01669   0.00000   0.00000   0.00000
  42        8PZ         0.00000   0.00000   0.02126  -0.00563   0.00000
  43        9PX         0.01664   0.00000   0.00000   0.00000  -0.05655
  44        9PY         0.00000   0.01664   0.00000   0.00000   0.00000
  45        9PZ         0.00000   0.00000  -0.02898  -0.01070   0.00000
  46       10PX         0.11308   0.00000   0.00000   0.00000  -1.40772
  47       10PY         0.00000   0.11308   0.00000   0.00000   0.00000
  48       10PZ         0.00000   0.00000  -0.12220  -0.02132   0.00000
  49       11PX        -0.06886   0.00000   0.00000   0.00000   3.09244
  50       11PY         0.00000  -0.06886   0.00000   0.00000   0.00000
  51       11PZ         0.00000   0.00000  -0.65392  -0.91301   0.00000
  52       12S          0.00000   0.00000   1.17896  -6.13410   0.00000
  53       12PX        -1.09411   0.00000   0.00000   0.00000  -1.94068
  54       12PY         0.00000  -1.09411   0.00000   0.00000   0.00000
  55       12PZ         0.00000   0.00000   0.12609  -2.44470   0.00000
  56       13D 0        0.00000   0.00000   0.00343  -0.06230   0.00000
  57       13D+1        0.00104   0.00000   0.00000   0.00000  -0.03159
  58       13D-1        0.00000   0.00104   0.00000   0.00000   0.00000
  59       13D+2        0.00000  -0.01304   0.00000   0.00000   0.00000
  60       13D-2       -0.01304   0.00000   0.00000   0.00000   0.07573
  61 3   H  1S          0.00000   0.00473  -0.08390   0.01364   0.00000
  62        2S          0.00000  -0.00307  -0.13327   0.03486   0.00000
  63        3S          0.00000   0.02794  -1.45897   0.48283   0.00000
  64 4   H  1S          0.00410  -0.00237  -0.08390   0.01364  -0.00489
  65        2S         -0.00266   0.00153  -0.13327   0.03486  -0.04125
  66        3S          0.02420  -0.01397  -1.45897   0.48283   0.01404
  67 5   H  1S         -0.00410  -0.00237  -0.08390   0.01364   0.00489
  68        2S          0.00266   0.00153  -0.13327   0.03486   0.04125
  69        3S         -0.02420  -0.01397  -1.45897   0.48283  -0.01404
                          31        32        33        34        35
                        (E)--V    (A1)--V   (E)--V    (E)--V    (A1)--V
     EIGENVALUES --     0.25009   0.25556   0.33985   0.33985   0.39700
   1 1   Cl 1S          0.00000   0.00476   0.00000   0.00000  -0.00539
   2        2S          0.00000   0.01392   0.00000   0.00000  -0.01591
   3        3S          0.00000  -0.03084   0.00000   0.00000   0.03640
   4        4S          0.00000  -0.05014   0.00000   0.00000   0.05422
   5        5S          0.00000   0.05870   0.00000   0.00000  -0.08474
   6        6S          0.00000   0.13113   0.00000   0.00000  -0.34750
   7        7PX         0.00000   0.00000   0.00000   0.07399   0.00000
   8        7PY         0.00819   0.00000   0.07399   0.00000   0.00000
   9        7PZ         0.00000   0.05683   0.00000   0.00000   0.12083
  10        8PX         0.00000   0.00000   0.00000   0.01680   0.00000
  11        8PY         0.00262   0.00000   0.01680   0.00000   0.00000
  12        8PZ         0.00000   0.01314   0.00000   0.00000   0.02162
  13        9PX         0.00000   0.00000   0.00000  -0.05798   0.00000
  14        9PY        -0.01190   0.00000  -0.05798   0.00000   0.00000
  15        9PZ         0.00000  -0.04310   0.00000   0.00000  -0.03843
  16       10PX         0.00000   0.00000   0.00000  -0.19229   0.00000
  17       10PY         0.00422   0.00000  -0.19229   0.00000   0.00000
  18       10PZ         0.00000  -0.11003   0.00000   0.00000  -0.71726
  19       11PX         0.00000   0.00000   0.00000   0.25366   0.00000
  20       11PY        -0.27738   0.00000   0.25366   0.00000   0.00000
  21       11PZ         0.00000  -0.91197   0.00000   0.00000   1.84473
  22       12S          0.00000  -2.34625   0.00000   0.00000  -0.71881
  23       12PX         0.00000   0.00000   0.00000   0.26030   0.00000
  24       12PY         0.23679   0.00000   0.26030   0.00000   0.00000
  25       12PZ         0.00000   1.89620   0.00000   0.00000  -0.41247
  26       13D 0        0.00000  -0.16009   0.00000   0.00000   0.09935
  27       13D+1        0.00000   0.00000   0.00000  -0.14829   0.00000
  28       13D-1        0.03420   0.00000  -0.14829   0.00000   0.00000
  29       13D+2        0.00366   0.00000  -0.03541   0.00000   0.00000
  30       13D-2        0.00000   0.00000   0.00000  -0.03541   0.00000
  31 2   Si 1S          0.00000   0.00046   0.00000   0.00000   0.00348
  32        2S          0.00000   0.00168   0.00000   0.00000   0.00900
  33        3S          0.00000  -0.00775   0.00000   0.00000  -0.01524
  34        4S          0.00000   0.01133   0.00000   0.00000  -0.07002
  35        5S          0.00000  -0.08108   0.00000   0.00000   0.28473
  36        6S          0.00000   0.39275   0.00000   0.00000  -0.21074
  37        7PX         0.00000   0.00000   0.00000  -0.03667   0.00000
  38        7PY         0.07398   0.00000  -0.03667   0.00000   0.00000
  39        7PZ         0.00000   0.07799   0.00000   0.00000   0.04297
  40        8PX         0.00000   0.00000   0.00000  -0.05684   0.00000
  41        8PY         0.11442   0.00000  -0.05684   0.00000   0.00000
  42        8PZ         0.00000   0.12460   0.00000   0.00000   0.06253
  43        9PX         0.00000   0.00000   0.00000   0.01073   0.00000
  44        9PY        -0.05655   0.00000   0.01073   0.00000   0.00000
  45        9PZ         0.00000  -0.08958   0.00000   0.00000   0.00933
  46       10PX         0.00000   0.00000   0.00000   0.64631   0.00000
  47       10PY        -1.40772   0.00000   0.64631   0.00000   0.00000
  48       10PZ         0.00000  -1.53724   0.00000   0.00000  -0.61494
  49       11PX         0.00000   0.00000   0.00000  -2.01041   0.00000
  50       11PY         3.09244   0.00000  -2.01041   0.00000   0.00000
  51       11PZ         0.00000   3.29280   0.00000   0.00000   2.41217
  52       12S          0.00000   1.93669   0.00000   0.00000  -0.85737
  53       12PX         0.00000   0.00000   0.00000  -0.15169   0.00000
  54       12PY        -1.94068   0.00000  -0.15169   0.00000   0.00000
  55       12PZ         0.00000  -1.28080   0.00000   0.00000  -0.76921
  56       13D 0        0.00000  -0.10835   0.00000   0.00000   0.27630
  57       13D+1        0.00000   0.00000   0.00000   0.29201   0.00000
  58       13D-1       -0.03159   0.00000   0.29201   0.00000   0.00000
  59       13D+2        0.07573   0.00000   0.10934   0.00000   0.00000
  60       13D-2        0.00000   0.00000   0.00000   0.10934   0.00000
  61 3   H  1S         -0.00564   0.01543  -0.07407   0.00000  -0.03884
  62        2S         -0.04763   0.10837  -1.13202   0.00000  -0.52158
  63        3S          0.01621  -0.06345   2.68765   0.00000   1.29284
  64 4   H  1S          0.00282   0.01543   0.03703  -0.06415  -0.03884
  65        2S          0.02382   0.10837   0.56601  -0.98036  -0.52158
  66        3S         -0.00811  -0.06345  -1.34383   2.32757   1.29284
  67 5   H  1S          0.00282   0.01543   0.03703   0.06415  -0.03884
  68        2S          0.02382   0.10837   0.56601   0.98036  -0.52158
  69        3S         -0.00811  -0.06345  -1.34383  -2.32757   1.29284
                          36        37        38        39        40
                        (A1)--V   (E)--V    (E)--V    (A1)--V   (E)--V
     EIGENVALUES --     0.41218   0.46291   0.46291   0.50119   0.53451
   1 1   Cl 1S          0.00083   0.00000   0.00000   0.00005   0.00000
   2        2S          0.00301   0.00000   0.00000  -0.00007   0.00000
   3        3S         -0.01160   0.00000   0.00000   0.00206   0.00000
   4        4S          0.01055   0.00000   0.00000  -0.00854   0.00000
   5        5S         -0.09682   0.00000   0.00000   0.07863   0.00000
   6        6S          0.37563   0.00000   0.00000  -0.58180   0.00000
   7        7PX         0.00000   0.00000   0.21083   0.00000  -0.02713
   8        7PY         0.00000   0.21083   0.00000   0.00000   0.00000
   9        7PZ        -0.11696   0.00000   0.00000   0.10012   0.00000
  10        8PX         0.00000   0.00000   0.03949   0.00000  -0.00259
  11        8PY         0.00000   0.03949   0.00000   0.00000   0.00000
  12        8PZ        -0.02396   0.00000   0.00000   0.02183   0.00000
  13        9PX         0.00000   0.00000  -0.09552   0.00000  -0.01265
  14        9PY         0.00000  -0.09552   0.00000   0.00000   0.00000
  15        9PZ         0.06372   0.00000   0.00000  -0.07716   0.00000
  16       10PX         0.00000   0.00000  -1.03836   0.00000   0.30165
  17       10PY         0.00000  -1.03836   0.00000   0.00000   0.00000
  18       10PZ         0.53832   0.00000   0.00000  -0.28537   0.00000
  19       11PX         0.00000   0.00000   2.34843   0.00000  -0.96446
  20       11PY         0.00000   2.34843   0.00000   0.00000   0.00000
  21       11PZ        -1.48326   0.00000   0.00000   1.77448   0.00000
  22       12S         -1.17269   0.00000   0.00000  -4.61585   0.00000
  23       12PX         0.00000   0.00000  -1.74729   0.00000   0.51478
  24       12PY         0.00000  -1.74729   0.00000   0.00000   0.00000
  25       12PZ         1.69442   0.00000   0.00000   0.94582   0.00000
  26       13D 0       -0.10022   0.00000   0.00000  -0.08959   0.00000
  27       13D+1        0.00000   0.00000   0.02433   0.00000  -0.34144
  28       13D-1        0.00000   0.02433   0.00000   0.00000   0.00000
  29       13D+2        0.00000  -0.00715   0.00000   0.00000   0.00000
  30       13D-2        0.00000   0.00000  -0.00715   0.00000  -0.02814
  31 2   Si 1S          0.00074   0.00000   0.00000  -0.02783   0.00000
  32        2S          0.00313   0.00000   0.00000  -0.07319   0.00000
  33        3S         -0.01788   0.00000   0.00000   0.13740   0.00000
  34        4S          0.03871   0.00000   0.00000   0.51258   0.00000
  35        5S         -0.69518   0.00000   0.00000  -3.24537   0.00000
  36        6S          0.19012   0.00000   0.00000   8.20945   0.00000
  37        7PX         0.00000   0.00000   0.00231   0.00000   0.02809
  38        7PY         0.00000   0.00231   0.00000   0.00000   0.00000
  39        7PZ         0.00779   0.00000   0.00000   0.00851   0.00000
  40        8PX         0.00000   0.00000  -0.00119   0.00000   0.04836
  41        8PY         0.00000  -0.00119   0.00000   0.00000   0.00000
  42        8PZ         0.01596   0.00000   0.00000   0.02449   0.00000
  43        9PX         0.00000   0.00000   0.05541   0.00000  -0.08901
  44        9PY         0.00000   0.05541   0.00000   0.00000   0.00000
  45        9PZ        -0.03243   0.00000   0.00000  -0.12595   0.00000
  46       10PX         0.00000   0.00000  -0.29679   0.00000  -0.23762
  47       10PY         0.00000  -0.29679   0.00000   0.00000   0.00000
  48       10PZ        -0.35579   0.00000   0.00000   0.36571   0.00000
  49       11PX         0.00000   0.00000  -0.04861   0.00000   0.97148
  50       11PY         0.00000  -0.04861   0.00000   0.00000   0.00000
  51       11PZ         0.88190   0.00000   0.00000   0.87397   0.00000
  52       12S         -0.76202   0.00000   0.00000   2.72557   0.00000
  53       12PX         0.00000   0.00000   0.74610   0.00000  -0.31563
  54       12PY         0.00000   0.74610   0.00000   0.00000   0.00000
  55       12PZ         0.02057   0.00000   0.00000   0.69554   0.00000
  56       13D 0       -0.09234   0.00000   0.00000  -0.10966   0.00000
  57       13D+1        0.00000   0.00000   0.15629   0.00000   0.69619
  58       13D-1        0.00000   0.15629   0.00000   0.00000   0.00000
  59       13D+2        0.00000  -0.21133   0.00000   0.00000   0.00000
  60       13D-2        0.00000   0.00000  -0.21133   0.00000  -0.49038
  61 3   H  1S         -0.07767   0.00518   0.00000   0.02633   0.00000
  62        2S         -0.80044   0.29322   0.00000   0.00299   0.00000
  63        3S          1.58718  -0.48426   0.00000  -1.65618   0.00000
  64 4   H  1S         -0.07767  -0.00259   0.00449   0.02633   0.02376
  65        2S         -0.80044  -0.14661   0.25393   0.00299   0.24338
  66        3S          1.58718   0.24213  -0.41938  -1.65618  -0.63352
  67 5   H  1S         -0.07767  -0.00259  -0.00449   0.02633  -0.02376
  68        2S         -0.80044  -0.14661  -0.25393   0.00299  -0.24338
  69        3S          1.58718   0.24213   0.41938  -1.65618   0.63352
                          41        42        43        44        45
                        (E)--V    (A1)--V   (E)--V    (E)--V    (E)--V
     EIGENVALUES --     0.53451   0.72408   0.79393   0.79393   0.87917
   1 1   Cl 1S          0.00000  -0.00052   0.00000   0.00000   0.00000
   2        2S          0.00000  -0.00259   0.00000   0.00000   0.00000
   3        3S          0.00000   0.01496   0.00000   0.00000   0.00000
   4        4S          0.00000  -0.03189   0.00000   0.00000   0.00000
   5        5S          0.00000   0.22920   0.00000   0.00000   0.00000
   6        6S          0.00000  -0.75543   0.00000   0.00000   0.00000
   7        7PX         0.00000   0.00000   0.02356   0.00000  -0.01437
   8        7PY        -0.02713   0.00000   0.00000   0.02356   0.00000
   9        7PZ         0.00000  -0.12360   0.00000   0.00000   0.00000
  10        8PX         0.00000   0.00000   0.00501   0.00000  -0.00276
  11        8PY        -0.00259   0.00000   0.00000   0.00501   0.00000
  12        8PZ         0.00000  -0.02126   0.00000   0.00000   0.00000
  13        9PX         0.00000   0.00000  -0.01933   0.00000   0.00956
  14        9PY        -0.01265   0.00000   0.00000  -0.01933   0.00000
  15        9PZ         0.00000   0.05116   0.00000   0.00000   0.00000
  16       10PX         0.00000   0.00000  -0.08480   0.00000   0.06948
  17       10PY         0.30165   0.00000   0.00000  -0.08480   0.00000
  18       10PZ         0.00000   0.61721   0.00000   0.00000   0.00000
  19       11PX         0.00000   0.00000   0.27869   0.00000  -0.22037
  20       11PY        -0.96446   0.00000   0.00000   0.27869   0.00000
  21       11PZ         0.00000  -0.86388   0.00000   0.00000   0.00000
  22       12S          0.00000  -0.11320   0.00000   0.00000   0.00000
  23       12PX         0.00000   0.00000  -0.17932   0.00000   0.17150
[...]
  51       11PZ         0.00000   0.00000   0.00000   0.00000   0.00000
  52       12S          0.00003   0.00028  -0.00232  -0.00705   0.02990
  53       12PX         0.00000   0.00000   0.00000   0.00000   0.00000
  54       12PY         0.00000   0.00000   0.00000   0.00000   0.00000
  55       12PZ         0.00000   0.00000   0.00000   0.00000   0.00000
  56       13D 0        0.00000   0.00000   0.00000   0.00000   0.00000
  57       13D+1        0.00000   0.00000   0.00000   0.00000   0.00000
  58       13D-1        0.00000   0.00000   0.00000   0.00000   0.00000
  59       13D+2        0.00000   0.00000   0.00000   0.00000   0.00000
  60       13D-2        0.00000   0.00000   0.00000   0.00000   0.00000
  61 3   H  1S          0.00000   0.00000  -0.00002  -0.00026   0.01041
  62        2S          0.00002   0.00016  -0.00154  -0.00589   0.04015
  63        3S          0.00000  -0.00004   0.00030   0.00021   0.00722
  64 4   H  1S          0.00000   0.00000  -0.00002  -0.00026   0.01041
  65        2S          0.00002   0.00016  -0.00154  -0.00589   0.04015
  66        3S          0.00000  -0.00004   0.00030   0.00021   0.00722
  67 5   H  1S          0.00000   0.00000  -0.00002  -0.00026   0.01041
  68        2S          0.00002   0.00016  -0.00154  -0.00589   0.04015
  69        3S          0.00000  -0.00004   0.00030   0.00021   0.00722
                          36        37        38        39        40
  36        6S          0.19480
  37        7PX         0.00000   0.33749
  38        7PY         0.00000   0.00000   0.33749
  39        7PZ         0.00000   0.00000   0.00000   0.33345
  40        8PX         0.00000   0.32383   0.00000   0.00000   0.98199
  41        8PY         0.00000   0.00000   0.32383   0.00000   0.00000
  42        8PZ         0.00000   0.00000   0.00000   0.32013   0.00000
  43        9PX         0.00000   0.00271   0.00000   0.00000   0.02173
  44        9PY         0.00000   0.00000   0.00271   0.00000   0.00000
  45        9PZ         0.00000   0.00000   0.00000   0.00358   0.00000
  46       10PX         0.00000  -0.00191   0.00000   0.00000  -0.02147
  47       10PY         0.00000   0.00000  -0.00191   0.00000   0.00000
  48       10PZ         0.00000   0.00000   0.00000  -0.00140   0.00000
  49       11PX         0.00000   0.00003   0.00000   0.00000   0.00034
  50       11PY         0.00000   0.00000   0.00003   0.00000   0.00000
  51       11PZ         0.00000   0.00000   0.00000   0.00008   0.00000
  52       12S          0.02551   0.00000   0.00000   0.00000   0.00000
  53       12PX         0.00000  -0.00002   0.00000   0.00000  -0.00024
  54       12PY         0.00000   0.00000  -0.00002   0.00000   0.00000
  55       12PZ         0.00000   0.00000   0.00000  -0.00003   0.00000
  56       13D 0        0.00000   0.00000   0.00000   0.00000   0.00000
  57       13D+1        0.00000   0.00000   0.00000   0.00000   0.00000
  58       13D-1        0.00000   0.00000   0.00000   0.00000   0.00000
  59       13D+2        0.00000   0.00000   0.00000   0.00000   0.00000
  60       13D-2        0.00000   0.00000   0.00000   0.00000   0.00000
  61 3   H  1S          0.00932   0.00000   0.00000   0.00000   0.00000
  62        2S          0.03238   0.00000  -0.00032  -0.00003   0.00000
  63        3S          0.00687   0.00000  -0.00019  -0.00001   0.00000
  64 4   H  1S          0.00932   0.00000   0.00000   0.00000  -0.00026
  65        2S          0.03238  -0.00024  -0.00008  -0.00003  -0.00320
  66        3S          0.00687  -0.00014  -0.00005  -0.00001  -0.00179
  67 5   H  1S          0.00932   0.00000   0.00000   0.00000  -0.00026
  68        2S          0.03238  -0.00024  -0.00008  -0.00003  -0.00320
  69        3S          0.00687  -0.00014  -0.00005  -0.00001  -0.00179
                          41        42        43        44        45
  41        8PY         0.98199
  42        8PZ         0.00000   0.97135
  43        9PX         0.00000   0.00000   0.06245
  44        9PY         0.02173   0.00000   0.00000   0.06245
  45        9PZ         0.00000   0.02913   0.00000   0.00000   0.04657
  46       10PX         0.00000   0.00000   0.07677   0.00000   0.00000
  47       10PY        -0.02147   0.00000   0.00000   0.07677   0.00000
  48       10PZ         0.00000  -0.01581   0.00000   0.00000   0.05328
  49       11PX         0.00000   0.00000   0.00196   0.00000   0.00000
  50       11PY         0.00034   0.00000   0.00000   0.00196   0.00000
  51       11PZ         0.00000   0.00106   0.00000   0.00000  -0.00169
  52       12S          0.00000   0.00000   0.00000   0.00000   0.00000
  53       12PX         0.00000   0.00000   0.00075   0.00000   0.00000
  54       12PY        -0.00024   0.00000   0.00000   0.00075   0.00000
  55       12PZ         0.00000  -0.00035   0.00000   0.00000   0.00155
  56       13D 0        0.00000   0.00000   0.00000   0.00000   0.00000
  57       13D+1        0.00000   0.00000   0.00000   0.00000   0.00000
  58       13D-1        0.00000   0.00000   0.00000   0.00000   0.00000
  59       13D+2        0.00000   0.00000   0.00000   0.00000   0.00000
  60       13D-2        0.00000   0.00000   0.00000   0.00000   0.00000
  61 3   H  1S         -0.00035  -0.00003   0.00000   0.00766   0.00069
  62        2S         -0.00426  -0.00039   0.00000   0.02652   0.00236
  63        3S         -0.00239  -0.00018   0.00000   0.01390   0.00101
  64 4   H  1S         -0.00009  -0.00003   0.00574   0.00191   0.00069
  65        2S         -0.00107  -0.00039   0.01989   0.00663   0.00236
  66        3S         -0.00060  -0.00018   0.01043   0.00348   0.00101
  67 5   H  1S         -0.00009  -0.00003   0.00574   0.00191   0.00069
  68        2S         -0.00107  -0.00039   0.01989   0.00663   0.00236
  69        3S         -0.00060  -0.00018   0.01043   0.00348   0.00101
                          46        47        48        49        50
  46       10PX         0.20644
  47       10PY         0.00000   0.20644
  48       10PZ         0.00000   0.00000   0.13882
  49       11PX         0.00730   0.00000   0.00000   0.00060
  50       11PY         0.00000   0.00730   0.00000   0.00000   0.00060
  51       11PZ         0.00000   0.00000  -0.00804   0.00000   0.00000
  52       12S          0.00000   0.00000   0.00000   0.00000   0.00000
  53       12PX         0.00490   0.00000   0.00000   0.00045   0.00000
  54       12PY         0.00000   0.00490   0.00000   0.00000   0.00045
  55       12PZ         0.00000   0.00000   0.00782   0.00000   0.00000
  56       13D 0        0.00000   0.00000   0.00000   0.00000   0.00000
  57       13D+1        0.00000   0.00000   0.00000   0.00000   0.00000
  58       13D-1        0.00000   0.00000   0.00000   0.00000   0.00000
  59       13D+2        0.00000   0.00000   0.00000   0.00000   0.00000
  60       13D-2        0.00000   0.00000   0.00000   0.00000   0.00000
  61 3   H  1S          0.00000   0.03173   0.00291   0.00000   0.00117
  62        2S          0.00000   0.08683   0.00807   0.00000   0.00380
  63        3S          0.00000   0.05386   0.00411   0.00000   0.00345
  64 4   H  1S          0.02379   0.00793   0.00291   0.00087   0.00029
  65        2S          0.06512   0.02171   0.00807   0.00285   0.00095
  66        3S          0.04039   0.01346   0.00411   0.00259   0.00086
  67 5   H  1S          0.02379   0.00793   0.00291   0.00087   0.00029
  68        2S          0.06512   0.02171   0.00807   0.00285   0.00095
  69        3S          0.04039   0.01346   0.00411   0.00259   0.00086
                          51        52        53        54        55
  51       11PZ         0.00189
  52       12S          0.00000   0.00999
  53       12PX         0.00000   0.00000   0.00091
  54       12PY         0.00000   0.00000   0.00000   0.00091
  55       12PZ        -0.00229   0.00000   0.00000   0.00000   0.00458
  56       13D 0        0.00000   0.00000   0.00000   0.00000   0.00000
  57       13D+1        0.00000   0.00000   0.00000   0.00000   0.00000
  58       13D-1        0.00000   0.00000   0.00000   0.00000   0.00000
  59       13D+2        0.00000   0.00000   0.00000   0.00000   0.00000
  60       13D-2        0.00000   0.00000   0.00000   0.00000   0.00000
  61 3   H  1S         -0.00013   0.00092   0.00000   0.00058   0.00002
  62        2S         -0.00040   0.00348   0.00000   0.00188   0.00010
  63        3S         -0.00037  -0.00038   0.00000   0.00202   0.00049
  64 4   H  1S         -0.00013   0.00092   0.00043   0.00014   0.00002
  65        2S         -0.00040   0.00348   0.00141   0.00047   0.00010
  66        3S         -0.00037  -0.00038   0.00152   0.00051   0.00049
  67 5   H  1S         -0.00013   0.00092   0.00043   0.00014   0.00002
  68        2S         -0.00040   0.00348   0.00141   0.00047   0.00010
  69        3S         -0.00037  -0.00038   0.00152   0.00051   0.00049
                          56        57        58        59        60
  56       13D 0        0.01354
  57       13D+1        0.00000   0.00949
  58       13D-1        0.00000   0.00000   0.00949
  59       13D+2        0.00000   0.00000   0.00000   0.00930
  60       13D-2        0.00000   0.00000   0.00000   0.00000   0.00930
  61 3   H  1S          0.00088   0.00000   0.00227   0.00486   0.00000
  62        2S          0.00161   0.00000   0.00475   0.00917   0.00000
  63        3S          0.00030   0.00000   0.00120   0.00217   0.00000
  64 4   H  1S          0.00088   0.00170   0.00057   0.00121   0.00364
  65        2S          0.00161   0.00357   0.00119   0.00229   0.00688
  66        3S          0.00030   0.00090   0.00030   0.00054   0.00163
  67 5   H  1S          0.00088   0.00170   0.00057   0.00121   0.00364
  68        2S          0.00161   0.00357   0.00119   0.00229   0.00688
  69        3S          0.00030   0.00090   0.00030   0.00054   0.00163
                          61        62        63        64        65
  61 3   H  1S          0.07735
  62        2S          0.08386   0.18407
  63        3S          0.02893   0.09641   0.09129
  64 4   H  1S          0.00000  -0.00006  -0.00141   0.07735
  65        2S         -0.00006  -0.00110  -0.00682   0.08386   0.18407
  66        3S         -0.00141  -0.00682  -0.01255   0.02893   0.09641
  67 5   H  1S          0.00000  -0.00006  -0.00141   0.00000  -0.00006
  68        2S         -0.00006  -0.00110  -0.00682  -0.00006  -0.00110
  69        3S         -0.00141  -0.00682  -0.01255  -0.00141  -0.00682
                          66        67        68        69
  66        3S          0.09129
  67 5   H  1S         -0.00141   0.07735
  68        2S         -0.00682   0.08386   0.18407
  69        3S         -0.01255   0.02893   0.09641   0.09129
     Gross orbital populations:
                           1
   1 1   Cl 1S          0.77725
   2        2S          1.18777
   3        3S          0.89147
   4        4S          1.09226
   5        5S          1.01414
   6        6S          1.02650
   7        7PX         2.48229
   8        7PY         2.48229
   9        7PZ         2.46622
  10        8PX        -0.51052
  11        8PY        -0.51052
  12        8PZ        -0.49985
  13        9PX         0.38461
  14        9PY         0.38461
  15        9PZ         0.31893
  16       10PX         1.05179
  17       10PY         1.05179
  18       10PZ         0.88292
  19       11PX         0.56292
  20       11PY         0.56292
  21       11PZ         0.27768
  22       12S         -0.08819
  23       12PX        -0.03805
  24       12PY        -0.03805
  25       12PZ        -0.03597
  26       13D 0        0.01081
  27       13D+1        0.00259
  28       13D-1        0.00259
  29       13D+2        0.00002
  30       13D-2        0.00002
  31 2   Si 1S          0.78735
  32        2S          1.18252
  33        3S          0.94594
  34        4S          1.03815
  35        5S          0.87906
  36        6S          0.49060
  37        7PX         0.66136
  38        7PY         0.66136
  39        7PZ         0.65533
  40        8PX         1.29566
  41        8PY         1.29566
  42        8PZ         1.29823
  43        9PX         0.23753
  44        9PY         0.23753
  45        9PZ         0.18698
  46       10PX         0.54668
  47       10PY         0.54668
  48       10PZ         0.35933
  49       11PX         0.02437
  50       11PY         0.02437
  51       11PZ        -0.03323
  52       12S          0.08153
  53       12PX         0.01972
  54       12PY         0.01972
  55       12PZ         0.02572
  56       13D 0        0.05057
  57       13D+1        0.03471
  58       13D-1        0.03471
  59       13D+2        0.03360
  60       13D-2        0.03360
  61 3   H  1S          0.25760
  62        2S          0.54431
  63        3S          0.24856
  64 4   H  1S          0.25760
  65        2S          0.54431
  66        3S          0.24856
  67 5   H  1S          0.25760
  68        2S          0.54431
  69        3S          0.24856
          Condensed to atoms (all electrons):
              1          2          3          4          5
     1  Cl  17.057039   0.240589  -0.034799  -0.034799  -0.034799
     2  Si   0.240589  12.290886   0.374619   0.374619   0.374619
     3  H   -0.034799   0.374619   0.771135  -0.030238  -0.030238
     4  H   -0.034799   0.374619  -0.030238   0.771135  -0.030238
     5  H   -0.034799   0.374619  -0.030238  -0.030238   0.771135
 Mulliken atomic charges:
              1
     1  Cl  -0.193232
     2  Si   0.344668
     3  H   -0.050479
     4  H   -0.050479
     5  H   -0.050479
 Sum of Mulliken charges=   0.00000
 Atomic charges with hydrogens summed into heavy atoms:
              1
     1  Cl  -0.193232
     2  Si   0.193232
     3  H    0.000000
     4  H    0.000000
     5  H    0.000000
 Sum of Mulliken charges=   0.00000
 Electronic spatial extent (au):  <R**2>=   227.6615
 Charge=     0.0000 electrons
 Dipole moment (field-independent basis, Debye):
    X=     0.0000    Y=     0.0000    Z=    -1.8273  Tot=     1.8273
 Quadrupole moment (field-independent basis, Debye-Ang):
   XX=   -28.2660   YY=   -28.2660   ZZ=   -27.7633
   XY=     0.0000   XZ=     0.0000   YZ=     0.0000
 Traceless Quadrupole moment (field-independent basis, Debye-Ang):
   XX=    -0.1675   YY=    -0.1675   ZZ=     0.3351
   XY=     0.0000   XZ=     0.0000   YZ=     0.0000
 Octapole moment (field-independent basis, Debye-Ang**2):
  XXX=     0.0000  YYY=    -0.9033  ZZZ=     4.8689  XYY=     0.0000
  XXY=     0.9033  XXZ=     2.5666  XZZ=     0.0000  YZZ=     0.0000
  YYZ=     2.5666  XYZ=     0.0000
 Hexadecapole moment (field-independent basis, Debye-Ang**3):
 XXXX=   -56.2867 YYYY=   -56.2867 ZZZZ=  -224.4101 XXXY=     0.0000
 XXXZ=     0.0000 YYYX=     0.0000 YYYZ=     1.0761 ZZZX=     0.0000
 ZZZY=     0.0000 XXYY=   -18.7622 XXZZ=   -51.2098 YYZZ=   -51.2098
 XXYZ=    -1.0761 YYXZ=     0.0000 ZZXY=     0.0000
 N-N= 8.549976672625D+01 E-N=-1.958487806327D+03  KE= 7.499497247102D+02
 Symmetry A'   KE= 6.780676735992D+02
 Symmetry A"   KE= 7.188205111101D+01
 Orbital energies and kinetic energies (alpha):
                           1         2
       1  (A1)--O    -101.54732 137.00543
       2  (A1)--O     -66.14693  92.13361
       3  (A1)--O      -9.46246  21.49526
       4  (A1)--O      -7.22484  20.53567
       5  (E)--O       -7.21823  20.54835
       6  (E)--O       -7.21823  20.54835
       7  (A1)--O      -5.31908  13.02936
       8  (A1)--O      -3.67947  12.20658
       9  (E)--O       -3.67590  12.21615
      10  (E)--O       -3.67590  12.21615
      11  (A1)--O      -0.83239   3.06364
      12  (A1)--O      -0.56100   1.54886
      13  (A1)--O      -0.39920   2.07441
      14  (E)--O       -0.39393   1.13833
      15  (E)--O       -0.39393   1.13833
      16  (E)--O       -0.32296   2.03819
      17  (E)--O       -0.32296   2.03819
      18  (A1)--V      -0.02641   1.02701
      19  (A1)--V      -0.00384   0.50525
      20  (E)--V        0.03448   0.19741
      21  (E)--V        0.03448   0.19741
      22  (E)--V        0.03735   0.73614
      23  (E)--V        0.03735   0.73614
      24  (A1)--V       0.05697   0.46347
      25  (A1)--V       0.06653   0.86855
      26  (E)--V        0.09536   0.35791
      27  (E)--V        0.09536   0.35791
      28  (A1)--V       0.12456   0.75078
      29  (A1)--V       0.15036   0.52333
      30  (A1)--V       0.24800   1.10047
      31  (E)--V        0.24961   0.84814
      32  (E)--V        0.24961   0.84814
      33  (E)--V        0.34267   1.08000
      34  (E)--V        0.34267   1.08000
      35  (A1)--V       0.39350   1.04156
      36  (A1)--V       0.41976   1.33579
      37  (E)--V        0.46347   1.60844
      38  (E)--V        0.46347   1.60844
      39  (A1)--V       0.49462   1.88966
      40  (E)--V        0.54789   1.59774
      41  (E)--V        0.54789   1.59774
      42  (A1)--V       0.70152   2.27369
      43  (E)--V        0.81663   2.19277
      44  (E)--V        0.81663   2.19277
      45  (E)--V        0.88209   2.59029
      46  (E)--V        0.88209   2.59029
      47  (A1)--V       0.91913   3.78445
      48  (E)--V        0.92308   2.62327
      49  (E)--V        0.92308   2.62327
      50  (A1)--V       1.19412   4.25775
      51  (E)--V        1.21933   3.87027
      52  (E)--V        1.21933   3.87027
      53  (A1)--V       1.35598   3.23726
      54  (E)--V        2.25543   8.47612
      55  (E)--V        2.25543   8.47612
      56  (A1)--V       2.32777   7.79646
      57  (E)--V        2.36876   4.04266
      58  (E)--V        2.36876   4.04266
      59  (A1)--V       2.48298   4.93942
      60  (A1)--V       5.37206  21.13845
      61  (A1)--V       9.65045  37.21037
      62  (E)--V       11.25607  36.68884
      63  (E)--V       11.25607  36.68884
      64  (A1)--V      11.29850  36.72213
      65  (E)--V       25.82431  44.00273
      66  (E)--V       25.82431  44.00273
      67  (A1)--V      26.13708  44.73351
      68  (A1)--V     140.80273 365.65557
      69  (A1)--V     215.63273 552.97192
 Total kinetic energy from orbitals= 7.499497247102D+02
 No NMR shielding tensors so no spin-rotation constants.
 Leave Link  601 at Sun Aug 12 17:17:38 2007, MaxMem=    6291456 cpu:       0.0
 (Enter C:\G03W\l9999.exe)
 1|1|UNPC-UNK|FOpt|RB3LYP|6-311+G(d)|Cl1H3Si1|PCUSER|12-Aug-2007|0||#p 
 b3lyp/6-311+G* gfprint opt pop=full||ClSiH3||0,1|Cl,0.,0.,-0.082962109
 3|Si,0.,0.,1.9978954708|H,1.4032485484,0.,2.4623991684|H,-0.7016242742
 ,1.2152488907,2.4623991684|H,-0.7016242742,-1.2152488907,2.4623991684|
 |Version=IA32W-G03RevD.01|State=1-A1|HF=-751.5842867|RMSD=1.597e-009|R
 MSF=5.213e-005|Thermal=0.|Dipole=0.,0.,0.718906|PG=C03V [C3(Si1Cl1),3S
 GV(H1)]||@


 I MET A TRAVELLER FROM AN ANTIQUE LAND
 WHO SAID... TWO VAST AND TRUNKLESS LEGS OF STONE
 STAND IN THE DESERT..... NEAR THEM,  ON THE SAND,
 HALF SUNK,  A SHATTERED VISAGE LIES,  WHOSE FROWN,
 AND WRINKLED LIP,  AND SNEER OF COLD COMMAND
 TELL THAT ITS SCULPTOR WELL THOSE PASSIONS READ
 WHICH YET SURVIVE,  STAMPED ON THESE LIFELESS THINGS
 THE HAND THAT MOCKED THEM,  AND THE HEART THAT FED-
 AND ON THE PEDESTAL THESE WORDS APPEAR 
 MY NAME IS OZYMANDIAS, KING OF KINGS--   
 LOOK ON MY WORKS YE MIGHTY AND DESPAIR. 
 NOTHING BESIDE REMAINS,  ROUND THE DECAY 
 OF THAT COLOSSAL WRECK,  BOUNDLESS AND BARE
 THE LONE AND LEVEL SANDS STRETCH FAR AWAY.
                                    SHELLEY
 Job cpu time:  0 days  0 hours  0 minutes 53.0 seconds.
 File lengths (MBytes):  RWF=     11 Int=      0 D2E=      0 Chk=      7 Scr=      1
 Normal termination of Gaussian 03 at Sun Aug 12 17:17:38 2007.