 Entering Link 1 = c:\g98w\l1.exe PID=       520.
  
 Copyright (c) 1988,1990,1992,1993,1995,1998 Gaussian, Inc.
                  All Rights Reserved.
  
 This is part of the Gaussian(R) 98 program.  It is based on
 the Gaussian 94(TM) system (copyright 1995 Gaussian, Inc.),
 the Gaussian 92(TM) system (copyright 1992 Gaussian, Inc.),
 the Gaussian 90(TM) system (copyright 1990 Gaussian, Inc.),
 the Gaussian 88(TM) system (copyright 1988 Gaussian, Inc.),
 the Gaussian 86(TM) system (copyright 1986 Carnegie Mellon
 University), and the Gaussian 82(TM) system (copyright 1983
 Carnegie Mellon University). Gaussian is a federally registered
 trademark of Gaussian, Inc.
  
 This software contains proprietary and confidential information,
 including trade secrets, belonging to Gaussian, Inc.
  
 This software is provided under written license and may be
 used, copied, transmitted, or stored only in accord with that
 written license.
  
 The following legend is applicable only to US Government
 contracts under DFARS:
  
                    RESTRICTED RIGHTS LEGEND
  
 Use, duplication or disclosure by the US Government is subject
 to restrictions as set forth in subparagraph (c)(1)(ii) of the
 Rights in Technical Data and Computer Software clause at DFARS
 252.227-7013.
  
 Gaussian, Inc.
 Carnegie Office Park, Building 6, Pittsburgh, PA 15106 USA
  
 The following legend is applicable only to US Government
 contracts under FAR:
  
                    RESTRICTED RIGHTS LEGEND
  
 Use, reproduction and disclosure by the US Government is subject
 to restrictions as set forth in subparagraph (c) of the
 Commercial Computer Software - Restricted Rights clause at FAR
 52.227-19.
  
 Gaussian, Inc.
 Carnegie Office Park, Building 6, Pittsburgh, PA 15106 USA
  
  
 ---------------------------------------------------------------
 Warning -- This program may not be used in any manner that
 competes with the business of Gaussian, Inc. or will provide
 assistance to any competitor of Gaussian, Inc.  The licensee
 of this program is prohibited from giving any competitor of
 Gaussian, Inc. access to this program.  By using this program,
 the user acknowledges that Gaussian, Inc. is engaged in the
 business of creating and licensing software in the field of
 computational chemistry and represents and warrants to the
 licensee that it is not a competitor of Gaussian, Inc. and that
 it will not use this program in any manner prohibited above.
 ---------------------------------------------------------------
  

 Cite this work as:
 Gaussian 98, Revision A.7,
 M. J. Frisch, G. W. Trucks, H. B. Schlegel, G. E. Scuseria, 
 M. A. Robb, J. R. Cheeseman, V. G. Zakrzewski, J. A. Montgomery, Jr., 
 R. E. Stratmann, J. C. Burant, S. Dapprich, J. M. Millam, 
 A. D. Daniels, K. N. Kudin, M. C. Strain, O. Farkas, J. Tomasi, 
 V. Barone, M. Cossi, R. Cammi, B. Mennucci, C. Pomelli, C. Adamo, 
 S. Clifford, J. Ochterski, G. A. Petersson, P. Y. Ayala, Q. Cui, 
 K. Morokuma, D. K. Malick, A. D. Rabuck, K. Raghavachari, 
 J. B. Foresman, J. Cioslowski, J. V. Ortiz, A. G. Baboul, 
 B. B. Stefanov, G. Liu, A. Liashenko, P. Piskorz, I. Komaromi, 
 R. Gomperts, R. L. Martin, D. J. Fox, T. Keith, M. A. Al-Laham, 
 C. Y. Peng, A. Nanayakkara, C. Gonzalez, M. Challacombe, 
 P. M. W. Gill, B. Johnson, W. Chen, M. W. Wong, J. L. Andres, 
 C. Gonzalez, M. Head-Gordon, E. S. Replogle, and J. A. Pople, 
 Gaussian, Inc., Pittsburgh PA, 1998.

 *********************************************
 Gaussian 98:  x86-Win32-G98RevA.7 11-Apr-1999
                  12-Aug-2007 
 *********************************************
 %chk=ClSiH3
 --------------------------------------
 #p b3lyp/6-311+G* gfprint opt pop=full
 --------------------------------------
 1/14=-1,18=20,26=3,38=1/1,3;
 2/9=110,17=6,18=5/2;
 3/5=4,6=6,7=11,11=2,24=1,25=1,30=1/1,2,3;
 4//1;
 5/5=2,38=4,42=-5/2;
 6/7=3,28=1/1;
 7//1,2,3,16;
 1/14=-1,18=20/3(1);
 99//99;
 2/9=110/2;
 3/5=4,6=6,7=11,11=2,25=1,30=1/1,2,3;
 4/5=5,16=2/1;
 5/5=2,38=4,42=-5/2;
 7//1,2,3,16;
 1/14=-1,18=20/3(-5);
 2/9=110/2;
 6/7=3,19=2,28=1/1;
 99/9=1/99;
 Leave Link    1 at Sun Aug 12 17:13:29 2007, MaxMem=          0 cpu:       1.0
 (Enter c:\g98w\l101.exe)
 ------
 ClSiH3
 ------
 Symbolic Z-matrix:
 Charge =  0 Multiplicity = 1
 17                   0     0.        0.        1.08141 
 14                   0     0.        0.       -0.99944 
 1                    0     0.        1.40325  -1.46395 
 1                    0     1.21525  -0.70162  -1.46395 
 1                    0    -1.21525  -0.70162  -1.46395 
 Leave Link  101 at Sun Aug 12 17:13:29 2007, MaxMem=    6291456 cpu:       0.0
 (Enter c:\g98w\l103.exe)

 GradGradGradGradGradGradGradGradGradGradGradGradGradGradGradGradGradGrad
 Berny optimization.
 Initialization pass.
                         ----------------------------
                         !    Initial Parameters    !
                         ! (Angstroms and Degrees)  !
 ------------------------                            -------------------------
 ! Name  Definition              Value          Derivative Info.             !
 -----------------------------------------------------------------------------
 ! R1    R(1,2)                  2.0809         estimate D2E/DX2             !
 ! R2    R(2,3)                  1.4781         estimate D2E/DX2             !
 ! R3    R(2,4)                  1.4781         estimate D2E/DX2             !
 ! R4    R(2,5)                  1.4781         estimate D2E/DX2             !
 ! A1    A(1,2,3)              108.3156         estimate D2E/DX2             !
 ! A2    A(1,2,4)              108.3156         estimate D2E/DX2             !
 ! A3    A(1,2,5)              108.3156         estimate D2E/DX2             !
 ! A4    A(3,2,4)              110.6017         estimate D2E/DX2             !
 ! A5    A(3,2,5)              110.6017         estimate D2E/DX2             !
 ! A6    A(4,2,5)              110.6017         estimate D2E/DX2             !
 -----------------------------------------------------------------------------
 Trust Radius=3.00D-01 FncErr=1.00D-07 GrdErr=1.00D-06
 Number of steps in this run=  20 maximum allowed number of steps= 100.
 GradGradGradGradGradGradGradGradGradGradGradGradGradGradGradGradGradGrad

 Leave Link  103 at Sun Aug 12 17:13:29 2007, MaxMem=    6291456 cpu:       0.0
 (Enter c:\g98w\l202.exe)
                          Input orientation:                          
 ---------------------------------------------------------------------
 Center     Atomic     Atomic              Coordinates (Angstroms)
 Number     Number      Type              X           Y           Z
 ---------------------------------------------------------------------
    1         17             0        0.000000    0.000000    1.081414
    2         14             0        0.000000    0.000000   -0.999443
    3          1             0        0.000000    1.403249   -1.463947
    4          1             0        1.215249   -0.701624   -1.463947
    5          1             0       -1.215249   -0.701624   -1.463947
 ---------------------------------------------------------------------
                    Distance matrix (angstroms):
                    1          2          3          4          5
     1  Cl   0.000000
     2  Si   2.080857   0.000000
     3  H    2.906539   1.478131   0.000000
     4  H    2.906539   1.478131   2.430498   0.000000
     5  H    2.906539   1.478131   2.430498   2.430498   0.000000
 Stoichiometry    ClH3Si
 Framework group  C3[C3(ClSi),X(H3)]
 Deg. of freedom    3
 Full point group                 C3      NOp   3
 Largest Abelian subgroup         C1      NOp   1
 Largest concise Abelian subgroup C1      NOp   1
                         Standard orientation:                         
 ---------------------------------------------------------------------
 Center     Atomic     Atomic              Coordinates (Angstroms)
 Number     Number      Type              X           Y           Z
 ---------------------------------------------------------------------
    1         17             0        0.000000    0.000000   -1.081414
    2         14             0        0.000000    0.000000    0.999443
    3          1             0        1.403249    0.000000    1.463947
    4          1             0       -0.701624    1.215249    1.463947
    5          1             0       -0.701624   -1.215249    1.463947
 ---------------------------------------------------------------------
 Rotational constants (GHZ):     84.8870403      6.4916897      6.4916897
 Isotopes: Cl-35,Si-28,H-1,H-1,H-1
 Leave Link  202 at Sun Aug 12 17:13:30 2007, MaxMem=    6291456 cpu:       0.0
 (Enter c:\g98w\l301.exe)
 Standard basis: 6-311+G(d) (5D, 7F)
 ***********************************************************************************************************************************
 *             ATOMIC CENTER             *        ATOMIC ORBITAL       *                     GAUSSIAN FUNCTIONS                    *
 ***********************************************************************************************************************************
 *                                       * FUNCTION    SHELL    SCALE  *                                                           *
 *    ATOM   X-COORD  Y-COORD  Z-COORD   *  NUMBER     TYPE     FACTOR *  EXPONENT    S-COEF      P-COEF      D-COEF      F-COEF   *
 ***********************************************************************************************************************************
 *     Cl     0.00000  0.00000 -2.04358                                                                                            *
+                                                1     S         1.00                                                               
+                                                                      0.105819D+060.738000D-030.000000D+000.000000D+000.000000D+00 
 *                                                                     0.158720D+050.571800D-020.000000D+000.000000D+000.000000D+00*
 *                                                                     0.361965D+040.294950D-010.000000D+000.000000D+000.000000D+00*
 *                                                                     0.103080D+040.117286D+000.000000D+000.000000D+000.000000D+00*
 *                                                                     0.339908D+030.362949D+000.000000D+000.000000D+000.000000D+00*
 *                                                                     0.124538D+030.584149D+000.000000D+000.000000D+000.000000D+00*
 *                                               2     S         1.00                                                              *
+                                                                      0.124538D+030.134177D+000.000000D+000.000000D+000.000000D+00 
 *                                                                     0.495135D+020.624250D+000.000000D+000.000000D+000.000000D+00*
 *                                                                     0.208056D+020.291756D+000.000000D+000.000000D+000.000000D+00*
 *                                               3     S         1.00                                                              *
+                                                                      0.658346D+010.100000D+010.000000D+000.000000D+000.000000D+00 
 *                                               4     S         1.00                                                              *
+                                                                      0.256468D+010.100000D+010.000000D+000.000000D+000.000000D+00 
 *                                               5     S         1.00                                                              *
+                                                                      0.559763D+000.100000D+010.000000D+000.000000D+000.000000D+00 
 *                                               6     S         1.00                                                              *
+                                                                      0.183273D+000.100000D+010.000000D+000.000000D+000.000000D+00 
 *                                           7-  9     P         1.00                                                              *
+                                                                      0.589776D+030.000000D+000.239100D-020.000000D+000.000000D+00 
 *                                                                     0.139849D+030.000000D+000.185040D-010.000000D+000.000000D+00*
 *                                                                     0.451413D+020.000000D+000.813770D-010.000000D+000.000000D+00*
 *                                                                     0.168733D+020.000000D+000.221552D+000.000000D+000.000000D+00*
 *                                                                     0.674110D+010.000000D+000.772569D+000.000000D+000.000000D+00*
 *                                          10- 12     P         1.00                                                              *
+                                                                      0.674110D+010.000000D+00-.157224D+010.000000D+000.000000D+00 
 *                                                                     0.277152D+010.000000D+000.992389D+000.000000D+000.000000D+00*
 *                                          13- 15     P         1.00                                                              *
+                                                                      0.102387D+010.000000D+000.100000D+010.000000D+000.000000D+00 
 *                                          16- 18     P         1.00                                                              *
+                                                                      0.381368D+000.000000D+000.100000D+010.000000D+000.000000D+00 
 *                                          19- 21     P         1.00                                                              *
+                                                                      0.109437D+000.000000D+000.100000D+010.000000D+000.000000D+00 
 *                                          22- 25     SP        1.00                                                              *
+                                                                      0.483000D-010.100000D+010.100000D+010.000000D+000.000000D+00 
 *                                          26- 30     5D        1.00                                                              *
+                                                                      0.750000D+000.000000D+000.000000D+000.100000D+010.000000D+00 
 *---------------------------------------------------------------------------------------------------------------------------------*
 *     Si     0.00000  0.00000  1.88867                                                                                            *
+                                               31     S         1.00                                                               
+                                                                      0.693792D+050.757000D-030.000000D+000.000000D+000.000000D+00 
 *                                                                     0.103549D+050.593200D-020.000000D+000.000000D+000.000000D+00*
 *                                                                     0.233388D+040.310880D-010.000000D+000.000000D+000.000000D+00*
 *                                                                     0.657143D+030.124967D+000.000000D+000.000000D+000.000000D+00*
 *                                                                     0.214301D+030.386897D+000.000000D+000.000000D+000.000000D+00*
 *                                                                     0.776292D+020.554888D+000.000000D+000.000000D+000.000000D+00*
 *                                              32     S         1.00                                                              *
+                                                                      0.776292D+020.177881D+000.000000D+000.000000D+000.000000D+00 
 *                                                                     0.306308D+020.627765D+000.000000D+000.000000D+000.000000D+00*
 *                                                                     0.128013D+020.247623D+000.000000D+000.000000D+000.000000D+00*
 *                                              33     S         1.00                                                              *
+                                                                      0.392687D+010.100000D+010.000000D+000.000000D+000.000000D+00 
 *                                              34     S         1.00                                                              *
+                                                                      0.145234D+010.100000D+010.000000D+000.000000D+000.000000D+00 
 *                                              35     S         1.00                                                              *
+                                                                      0.256234D+000.100000D+010.000000D+000.000000D+000.000000D+00 
 *                                              36     S         1.00                                                              *
+                                                                      0.942790D-010.100000D+010.000000D+000.000000D+000.000000D+00 
 *                                          37- 39     P         1.00                                                              *
+                                                                      0.335483D+030.000000D+000.886600D-020.000000D+000.000000D+00 
 *                                                                     0.789004D+020.000000D+000.682990D-010.000000D+000.000000D+00*
 *                                                                     0.249882D+020.000000D+000.290958D+000.000000D+000.000000D+00*
 *                                                                     0.921971D+010.000000D+000.732117D+000.000000D+000.000000D+00*
 *                                          40- 42     P         1.00                                                              *
+                                                                      0.362114D+010.000000D+000.619879D+000.000000D+000.000000D+00 
 *                                                                     0.145131D+010.000000D+000.439148D+000.000000D+000.000000D+00*
 *                                          43- 45     P         1.00                                                              *
+                                                                      0.504977D+000.000000D+000.100000D+010.000000D+000.000000D+00 
 *                                          46- 48     P         1.00                                                              *
+                                                                      0.186317D+000.000000D+000.100000D+010.000000D+000.000000D+00 
 *                                          49- 51     P         1.00                                                              *
+                                                                      0.654320D-010.000000D+000.100000D+010.000000D+000.000000D+00 
 *                                          52- 55     SP        1.00                                                              *
+                                                                      0.331000D-010.100000D+010.100000D+010.000000D+000.000000D+00 
 *                                          56- 60     5D        1.00                                                              *
+                                                                      0.450000D+000.000000D+000.000000D+000.100000D+010.000000D+00 
 *---------------------------------------------------------------------------------------------------------------------------------*
 *     H      2.65176  0.00000  2.76646                                                                                            *
+                                               61     S         1.00                                                               
+                                                                      0.338650D+020.254938D-010.000000D+000.000000D+000.000000D+00 
 *                                                                     0.509479D+010.190373D+000.000000D+000.000000D+000.000000D+00*
 *                                                                     0.115879D+010.852161D+000.000000D+000.000000D+000.000000D+00*
 *                                              62     S         1.00                                                              *
+                                                                      0.325840D+000.100000D+010.000000D+000.000000D+000.000000D+00 
 *                                              63     S         1.00                                                              *
+                                                                      0.102741D+000.100000D+010.000000D+000.000000D+000.000000D+00 
 *---------------------------------------------------------------------------------------------------------------------------------*
 *     H     -1.32588  2.29649  2.76646                                                                                            *
+                                               64     S         1.00                                                               
+                                                                      0.338650D+020.254938D-010.000000D+000.000000D+000.000000D+00 
 *                                                                     0.509479D+010.190373D+000.000000D+000.000000D+000.000000D+00*
 *                                                                     0.115879D+010.852161D+000.000000D+000.000000D+000.000000D+00*
 *                                              65     S         1.00                                                              *
+                                                                      0.325840D+000.100000D+010.000000D+000.000000D+000.000000D+00 
 *                                              66     S         1.00                                                              *
+                                                                      0.102741D+000.100000D+010.000000D+000.000000D+000.000000D+00 
 *---------------------------------------------------------------------------------------------------------------------------------*
 *     H     -1.32588 -2.29649  2.76646                                                                                            *
+                                               67     S         1.00                                                               
+                                                                      0.338650D+020.254938D-010.000000D+000.000000D+000.000000D+00 
 *                                                                     0.509479D+010.190373D+000.000000D+000.000000D+000.000000D+00*
 *                                                                     0.115879D+010.852161D+000.000000D+000.000000D+000.000000D+00*
 *                                              68     S         1.00                                                              *
+                                                                      0.325840D+000.100000D+010.000000D+000.000000D+000.000000D+00 
 *                                              69     S         1.00                                                              *
+                                                                      0.102741D+000.100000D+010.000000D+000.000000D+000.000000D+00 
 ***********************************************************************************************************************************
 There are    69 symmetry adapted basis functions of A   symmetry.
 Crude estimate of integral set expansion from redundant integrals=1.000.
 Integral buffers will be    262144 words long.
 Raffenetti 2 integral format.
 Two-electron integral symmetry is turned on.
    69 basis functions      116 primitive gaussians
    17 alpha electrons       17 beta electrons
       nuclear repulsion energy        85.4997850575 Hartrees.
 Leave Link  301 at Sun Aug 12 17:13:30 2007, MaxMem=    6291456 cpu:       0.0
 (Enter c:\g98w\l302.exe)
 One-electron integrals computed using PRISM.
 NBasis=    69 RedAO= T  NBF=    69
 NBsUse=    69 1.00D-04 NBFU=    69
 Leave Link  302 at Sun Aug 12 17:13:31 2007, MaxMem=    6291456 cpu:       1.0
 (Enter c:\g98w\l303.exe)
 DipDrv:  MaxL=1.
 Leave Link  303 at Sun Aug 12 17:13:31 2007, MaxMem=    6291456 cpu:       0.0
 (Enter c:\g98w\l401.exe)
 Projected CNDO Guess.
 Initial guess orbital symmetries:
       Occupied  (A) (A) (E) (E) (A) (A) (A) (E) (E) (A) (A) (A)
                 (E) (E) (A) (E) (E)
       Virtual   (A) (E) (E) (A) (A) (A) (A) (A) (E) (E) (A) (E)
                 (E) (A) (E) (E) (A) (E) (E) (A) (A) (E) (E) (A)
                 (A) (E) (E) (E) (E) (A) (A) (A) (A) (E) (E) (A)
                 (E) (E) (A) (E) (E) (A) (A) (E) (E) (A) (E) (E)
                 (E) (E) (E) (E)
 Leave Link  401 at Sun Aug 12 17:13:32 2007, MaxMem=    6291456 cpu:       1.0
 (Enter c:\g98w\l502.exe)
 IExCor= 402 DFT=T Ex=B+HF Corr=LYP ScaHFX= 0.2000
 ScaDFX=  0.8000  0.7200  1.0000  0.8100
 IRadAn=      0 IRanWt=     -1 IRanGd=            0 ICorTp=0
 Using DIIS extrapolation.
 Closed shell SCF:
 Requested convergence on RMS density matrix=1.00D-08 within  64 cycles.
 Requested convergence on MAX density matrix=1.00D-06.
 Integral symmetry usage will be decided dynamically.
 IEnd=     21361 IEndB=     21361 NGot=   6291456 MDV=   6279432
 LenX=   6279432
 Fock matrices will be formed incrementally for  20 cycles.

 Cycle   1  Pass 1  IDiag 1:
 Petite list used in FoFDir.
 MinBra= 0 MaxBra= 2 Meth= 1.
 IRaf=       0 NMat=   1 IRICut=       1 DoRegI=T DoRafI=F ISym2E= 1 JSym2E=1.
 E=-0.835159014684683D+03
 DIIS: error= 1.78D+00 at cycle   1.
 T= 3000. Gap= 0.239 NK=0 IS=    1 IE=   69
          NO(<0.9)=   0  NV(>0.1)=   0  17.00e < EF 0.00e >EF  Err=4.4D-11
 RMSDP=1.83D-02 MaxDP=3.28D-01

 Cycle   2  Pass 1  IDiag 1:
 RMSU=  1.81D-02    CP:  9.58D-01
 E=-0.837019184035655D+03 Delta-E=       -1.860169350972
 DIIS: error= 5.42D-02 at cycle   2.
 Coeff:-0.928D-02-0.991D+00
 T= 2700. Gap= 0.316 NK=0 IS=    1 IE=   69
          NO(<0.9)=   0  NV(>0.1)=   0  17.00e < EF 0.00e >EF  Err=6.2D-11
 RMSDP=8.15D-03 MaxDP=1.11D-01

 Cycle   3  Pass 1  IDiag 1:
 RMSU=  7.82D-03    CP:  9.72D-01  8.83D-01
 E=-0.837023925279170D+03 Delta-E=       -0.004741243514
 DIIS: error= 2.57D-02 at cycle   3.
 Coeff:-0.701D-03-0.418D+00-0.582D+00
 T= 2400. Gap= 0.282 NK=0 IS=    1 IE=   69
          NO(<0.9)=   0  NV(>0.1)=   0  17.00e < EF 0.00e >EF  Err=1.9D-11
 RMSDP=4.66D-03 MaxDP=6.73D-02

 Cycle   4  Pass 1  IDiag 1:
 RMSU=  1.18D-03    CP:  9.62D-01  9.55D-01  4.53D-01
 E=-0.837081009401951D+03 Delta-E=       -0.057084122782
 DIIS: error= 7.86D-03 at cycle   4.
 Coeff:-0.111D-03-0.134D+00-0.259D+00-0.606D+00
 T= 1481. Gap= 0.297 NK=0 IS=    1 IE=   69
          NO(<0.9)=   0  NV(>0.1)=   0  17.00e < EF 0.00e >EF  Err=7.8D-11
 RMSDP=8.82D-04 MaxDP=1.43D-02

 Cycle   5  Pass 1  IDiag 1:
 RMSU=  2.49D-04    CP:  9.65D-01  9.43D-01  5.50D-01  7.60D-01
 E=-0.837084054049684D+03 Delta-E=       -0.003044647733
 DIIS: error= 5.26D-04 at cycle   5.
 Coeff: 0.353D-04-0.112D-01-0.261D-01-0.103D+00-0.860D+00
 RMSDP=7.52D-05 MaxDP=1.02D-03

 Cycle   6  Pass 1  IDiag 1:
 RMSU=  5.28D-05    CP:  9.64D-01  9.43D-01  5.51D-01  7.94D-01  8.82D-01
 E=-0.837084068463734D+03 Delta-E=       -0.000014414050
 DIIS: error= 2.44D-04 at cycle   6.
 Coeff: 0.151D-04 0.516D-03-0.937D-03-0.209D-01-0.335D+00-0.644D+00
 RMSDP=2.90D-05 MaxDP=4.28D-04

 Cycle   7  Pass 1  IDiag 1:
 RMSU=  1.25D-05    CP:  9.64D-01  9.43D-01  5.50D-01  7.88D-01  9.33D-01
                    CP:  6.80D-01
 E=-0.837084071682493D+03 Delta-E=       -0.000003218759
 DIIS: error= 2.23D-05 at cycle   7.
 Coeff: 0.217D-05 0.208D-03 0.525D-03-0.124D-02-0.449D-01-0.147D+00
 Coeff:-0.808D+00
 RMSDP=4.15D-06 MaxDP=1.20D-04

 Cycle   8  Pass 1  IDiag 1:
 RMSU=  3.24D-06    CP:  9.64D-01  9.43D-01  5.50D-01  7.89D-01  9.30D-01
                    CP:  7.06D-01  8.70D-01
 E=-0.837084071728000D+03 Delta-E=       -0.000000045506
 DIIS: error= 6.69D-06 at cycle   8.
 Coeff:-0.282D-06 0.452D-04 0.124D-03 0.224D-03 0.284D-02-0.456D-02
 Coeff:-0.216D+00-0.783D+00
 RMSDP=9.15D-07 MaxDP=2.95D-05

 Cycle   9  Pass 1  IDiag 1:
 RMSU=  3.74D-07    CP:  9.64D-01  9.43D-01  5.50D-01  7.89D-01  9.31D-01
                    CP:  7.06D-01  9.07D-01  8.14D-01
 E=-0.837084071730760D+03 Delta-E=       -0.000000002760
 DIIS: error= 3.24D-07 at cycle   9.
 Coeff:-0.129D-07 0.374D-06 0.340D-05 0.227D-04 0.324D-03 0.174D-02
 Coeff: 0.409D-02-0.251D-01-0.981D+00
 RMSDP=6.36D-08 MaxDP=9.51D-07

 Cycle  10  Pass 1  IDiag 1:
 RMSU=  2.00D-08    CP:  9.64D-01  9.43D-01  5.50D-01  7.89D-01  9.31D-01
                    CP:  7.06D-01  9.09D-01  8.28D-01  1.04D+00
 E=-0.837084071730766D+03 Delta-E=       -0.000000000007
 DIIS: error= 1.55D-08 at cycle  10.
 Coeff:-0.556D-09-0.176D-06-0.113D-07 0.361D-05 0.537D-04 0.249D-03
 Coeff: 0.123D-02-0.440D-03-0.104D+00-0.897D+00
 RMSDP=5.97D-09 MaxDP=7.20D-08

 SCF Done:  E(RB+HF-LYP) =  -751.584286673     A.U. after   10 cycles
             Convg  =    0.5972D-08             -V/T =  2.0022
             S**2   =   0.0000
 KE= 7.499497247333D+02 PE=-1.958487842664D+03 EE= 3.714540462002D+02
 Leave Link  502 at Sun Aug 12 17:13:47 2007, MaxMem=    6291456 cpu:      15.0
 (Enter c:\g98w\l601.exe)
 Copying SCF densities to generalized density rwf, ISCF=0 IROHF=0.

 **********************************************************************

            Population analysis using the SCF density.

 **********************************************************************

 Orbital Symmetries:
       Occupied  (A) (A) (A) (A) (E) (E) (A) (A) (E) (E) (A) (A)
                 (A) (E) (E) (E) (E)
       Virtual   (A) (A) (E) (E) (E) (E) (A) (A) (E) (E) (A) (A)
                 (A) (E) (E) (E) (E) (A) (A) (E) (E) (A) (E) (E)
                 (A) (E) (E) (E) (E) (A) (E) (E) (A) (E) (E) (A)
                 (E) (E) (A) (E) (E) (A) (A) (A) (E) (E) (A) (E)
                 (E) (A) (A) (A)
  The electronic state is 1-A.
 Alpha  occ. eigenvalues -- -101.54732 -66.14693  -9.46246  -7.22484  -7.21823
 Alpha  occ. eigenvalues --   -7.21823  -5.31908  -3.67947  -3.67590  -3.67590
 Alpha  occ. eigenvalues --   -0.83239  -0.56100  -0.39920  -0.39393  -0.39393
 Alpha  occ. eigenvalues --   -0.32296  -0.32296
 Alpha virt. eigenvalues --   -0.02641  -0.00384   0.03448   0.03448   0.03735
 Alpha virt. eigenvalues --    0.03735   0.05697   0.06653   0.09536   0.09536
 Alpha virt. eigenvalues --    0.12456   0.15036   0.24800   0.24961   0.24961
 Alpha virt. eigenvalues --    0.34267   0.34267   0.39350   0.41976   0.46347
 Alpha virt. eigenvalues --    0.46347   0.49462   0.54789   0.54789   0.70152
 Alpha virt. eigenvalues --    0.81663   0.81663   0.88209   0.88209   0.91913
 Alpha virt. eigenvalues --    0.92308   0.92308   1.19412   1.21933   1.21933
 Alpha virt. eigenvalues --    1.35598   2.25543   2.25543   2.32777   2.36876
 Alpha virt. eigenvalues --    2.36876   2.48298   5.37206   9.65045  11.25607
 Alpha virt. eigenvalues --   11.25607  11.29850  25.82431  25.82431  26.13708
 Alpha virt. eigenvalues --  140.80273 215.63273
     Molecular Orbital Coefficients
                           1         2         3         4         5
                        (A)--O    (A)--O    (A)--O    (A)--O    (E)--O
     EIGENVALUES --  -101.54732 -66.14693  -9.46246  -7.22484  -7.21823
   1 1   Cl 1S          0.41161   0.00000  -0.12180   0.00061   0.00000
   2        2S          0.65408   0.00000  -0.32693   0.00165   0.00000
   3        3S          0.01499   0.00000   0.49738  -0.00262   0.00000
   4        4S         -0.00394  -0.00001   0.61095  -0.00312   0.00000
   5        5S          0.00145   0.00007   0.05797   0.00003   0.00000
   6        6S         -0.00099  -0.00004  -0.02255   0.00027   0.00000
   7        7PX         0.00000   0.00000   0.00000   0.00000   1.23285
   8        7PY         0.00000   0.00000   0.00000   0.00000   0.04978
   9        7PZ         0.00011  -0.00007   0.00582   1.23343   0.00000
  10        8PX         0.00000   0.00000   0.00000   0.00000   0.33327
  11        8PY         0.00000   0.00000   0.00000   0.00000   0.01346
  12        8PZ         0.00006  -0.00006   0.00151   0.33349   0.00000
  13        9PX         0.00000   0.00000   0.00000   0.00000   0.05230
  14        9PY         0.00000   0.00000   0.00000   0.00000   0.00211
  15        9PZ        -0.00007   0.00012   0.00057   0.05308   0.00000
  16       10PX         0.00000   0.00000   0.00000   0.00000  -0.00075
  17       10PY         0.00000   0.00000   0.00000   0.00000  -0.00003
  18       10PZ         0.00006  -0.00016   0.00039  -0.00080   0.00000
  19       11PX         0.00000   0.00000   0.00000   0.00000  -0.00009
  20       11PY         0.00000   0.00000   0.00000   0.00000   0.00000
  21       11PZ        -0.00019   0.00022  -0.00328   0.00015   0.00000
  22       12S          0.00073   0.00120   0.01542  -0.00006   0.00000
  23       12PX         0.00000   0.00000   0.00000   0.00000   0.00013
  24       12PY         0.00000   0.00000   0.00000   0.00000   0.00001
  25       12PZ         0.00026   0.00041   0.00502  -0.00003   0.00000
  26       13D 0       -0.00001  -0.00006   0.00010   0.00053   0.00000
  27       13D+1        0.00000   0.00000   0.00000   0.00000   0.00035
  28       13D-1        0.00000   0.00000   0.00000   0.00000   0.00001
  29       13D+2        0.00000   0.00000   0.00000   0.00000   0.00000
  30       13D-2        0.00000   0.00000   0.00000   0.00000   0.00000
  31 2   Si 1S          0.00000   0.41758   0.00000   0.00000   0.00000
  32        2S          0.00000   0.64679   0.00001   0.00000   0.00000
  33        3S          0.00000   0.01398  -0.00002  -0.00002   0.00000
  34        4S         -0.00001  -0.00479  -0.00005   0.00003   0.00000
  35        5S          0.00000   0.00229  -0.00005   0.00013   0.00000
  36        6S          0.00014  -0.00263   0.00233  -0.00034   0.00000
  37        7PX         0.00000   0.00000   0.00000   0.00000   0.00000
  38        7PY         0.00000   0.00000   0.00000   0.00000   0.00000
  39        7PZ         0.00000  -0.00005   0.00000   0.00000   0.00000
  40        8PX         0.00000   0.00000   0.00000   0.00000  -0.00001
  41        8PY         0.00000   0.00000   0.00000   0.00000   0.00000
  42        8PZ         0.00001   0.00002   0.00005   0.00002   0.00000
  43        9PX         0.00000   0.00000   0.00000   0.00000   0.00004
  44        9PY         0.00000   0.00000   0.00000   0.00000   0.00000
  45        9PZ        -0.00002   0.00001  -0.00048  -0.00021   0.00000
  46       10PX         0.00000   0.00000   0.00000   0.00000  -0.00005
  47       10PY         0.00000   0.00000   0.00000   0.00000   0.00000
  48       10PZ        -0.00004  -0.00008  -0.00057   0.00037   0.00000
  49       11PX         0.00000   0.00000   0.00000   0.00000   0.00005
  50       11PY         0.00000   0.00000   0.00000   0.00000   0.00000
  51       11PZ        -0.00007   0.00030  -0.00146  -0.00023   0.00000
  52       12S         -0.00045  -0.00071  -0.00938   0.00001   0.00000
  53       12PX         0.00000   0.00000   0.00000   0.00000  -0.00007
  54       12PY         0.00000   0.00000   0.00000   0.00000   0.00000
  55       12PZ         0.00025   0.00016   0.00517   0.00007   0.00000
  56       13D 0        0.00002   0.00001   0.00020  -0.00011   0.00000
  57       13D+1        0.00000   0.00000   0.00000   0.00000  -0.00001
  58       13D-1        0.00000   0.00000   0.00000   0.00000   0.00000
  59       13D+2        0.00000   0.00000   0.00000   0.00000   0.00000
  60       13D-2        0.00000   0.00000   0.00000   0.00000   0.00000
  61 3   H  1S          0.00001   0.00000   0.00009   0.00000   0.00000
  62        2S         -0.00002  -0.00013  -0.00050  -0.00005   0.00001
  63        3S         -0.00001   0.00052  -0.00009   0.00011   0.00000
  64 4   H  1S          0.00001   0.00000   0.00009   0.00000   0.00000
  65        2S         -0.00002  -0.00013  -0.00050  -0.00005   0.00000
  66        3S         -0.00001   0.00052  -0.00009   0.00011   0.00000
  67 5   H  1S          0.00001   0.00000   0.00009   0.00000   0.00000
  68        2S         -0.00002  -0.00013  -0.00050  -0.00005   0.00000
  69        3S         -0.00001   0.00052  -0.00009   0.00011   0.00000
                           6         7         8         9        10
                        (E)--O    (A)--O    (A)--O    (E)--O    (E)--O
     EIGENVALUES --    -7.21823  -5.31908  -3.67947  -3.67590  -3.67590
   1 1   Cl 1S          0.00000   0.00001  -0.00004   0.00000   0.00000
   2        2S          0.00000   0.00003  -0.00012   0.00000   0.00000
   3        3S          0.00000  -0.00007   0.00018   0.00000   0.00000
   4        4S          0.00000  -0.00004   0.00054   0.00000   0.00000
   5        5S          0.00000   0.00065  -0.00103   0.00000   0.00000
   6        6S          0.00000  -0.00006  -0.00023   0.00000   0.00000
   7        7PX        -0.04978   0.00000   0.00000   0.00002  -0.00005
   8        7PY         1.23285   0.00000   0.00000  -0.00005  -0.00002
   9        7PZ         0.00000  -0.00039   0.00075   0.00000   0.00000
  10        8PX        -0.01346   0.00000   0.00000   0.00000  -0.00001
  11        8PY         0.33327   0.00000   0.00000  -0.00001   0.00000
  12        8PZ         0.00000  -0.00018   0.00024   0.00000   0.00000
  13        9PX        -0.00211   0.00000   0.00000   0.00002  -0.00004
  14        9PY         0.05230   0.00000   0.00000  -0.00004  -0.00002
  15        9PZ         0.00000   0.00084  -0.00062   0.00000   0.00000
  16       10PX         0.00003   0.00000   0.00000  -0.00011   0.00032
  17       10PY        -0.00075   0.00000   0.00000   0.00032   0.00011
  18       10PZ         0.00000  -0.00168  -0.00041   0.00000   0.00000
  19       11PX         0.00000   0.00000   0.00000   0.00009  -0.00025
  20       11PY        -0.00009   0.00000   0.00000  -0.00025  -0.00009
  21       11PZ         0.00000   0.00300  -0.00103   0.00000   0.00000
  22       12S          0.00000   0.01970   0.00236   0.00000   0.00000
  23       12PX        -0.00001   0.00000   0.00000   0.00000   0.00000
  24       12PY         0.00013   0.00000   0.00000   0.00000   0.00000
  25       12PZ         0.00000   0.00730   0.00200   0.00000   0.00000
  26       13D 0        0.00000  -0.00084  -0.00016   0.00000   0.00000
  27       13D+1       -0.00001   0.00000   0.00000  -0.00007   0.00020
  28       13D-1        0.00035   0.00000   0.00000   0.00020   0.00007
  29       13D+2        0.00000   0.00000   0.00000   0.00000   0.00000
  30       13D-2        0.00000   0.00000   0.00000   0.00000   0.00000
  31 2   Si 1S          0.00000  -0.11703  -0.00068   0.00000   0.00000
  32        2S          0.00000  -0.30379  -0.00180   0.00000   0.00000
  33        3S          0.00000   0.53574   0.00358   0.00000   0.00000
  34        4S          0.00000   0.57230   0.00287   0.00000   0.00000
  35        5S          0.00000   0.06160  -0.00017   0.00000   0.00000
  36        6S          0.00000  -0.04826   0.00041   0.00000   0.00000
  37        7PX         0.00000   0.00000   0.00000  -0.13199   0.38179
  38        7PY         0.00000   0.00000   0.00000   0.38179   0.13199
  39        7PZ         0.00000  -0.00190   0.40366   0.00000   0.00000
  40        8PX         0.00000   0.00000   0.00000  -0.22489   0.65051
  41        8PY        -0.00001   0.00000   0.00000   0.65051   0.22489
  42        8PZ         0.00000  -0.00407   0.68829   0.00000   0.00000
  43        9PX         0.00000   0.00000   0.00000  -0.02004   0.05796
  44        9PY         0.00004   0.00000   0.00000   0.05796   0.02004
  45        9PZ         0.00000  -0.00009   0.06199   0.00000   0.00000
  46       10PX         0.00000   0.00000   0.00000   0.00359  -0.01039
  47       10PY        -0.00005   0.00000   0.00000  -0.01039  -0.00359
  48       10PZ         0.00000  -0.00136  -0.01149   0.00000   0.00000
  49       11PX         0.00000   0.00000   0.00000  -0.00218   0.00631
  50       11PY         0.00005   0.00000   0.00000   0.00631   0.00218
  51       11PZ         0.00000   0.00532   0.00763   0.00000   0.00000
  52       12S          0.00000  -0.01032  -0.00152   0.00000   0.00000
  53       12PX         0.00000   0.00000   0.00000   0.00086  -0.00248
  54       12PY        -0.00007   0.00000   0.00000  -0.00248  -0.00086
  55       12PZ         0.00000   0.00242  -0.00263   0.00000   0.00000
  56       13D 0        0.00000   0.00030  -0.00117   0.00000   0.00000
  57       13D+1        0.00000   0.00000   0.00000   0.00012  -0.00036
  58       13D-1       -0.00001   0.00000   0.00000  -0.00036  -0.00012
  59       13D+2        0.00000   0.00000   0.00000  -0.00010   0.00028
  60       13D-2        0.00000   0.00000   0.00000  -0.00028  -0.00010
  61 3   H  1S          0.00000   0.00002   0.00021  -0.00021   0.00060
  62        2S          0.00000  -0.00147   0.00027  -0.00038   0.00109
  63        3S          0.00000   0.00807  -0.00064   0.00035  -0.00102
  64 4   H  1S          0.00000   0.00002   0.00021   0.00063  -0.00012
  65        2S          0.00001  -0.00147   0.00027   0.00113  -0.00022
  66        3S          0.00000   0.00807  -0.00064  -0.00106   0.00020
  67 5   H  1S          0.00000   0.00002   0.00021  -0.00042  -0.00048
  68        2S         -0.00001  -0.00147   0.00027  -0.00075  -0.00087
  69        3S          0.00000   0.00807  -0.00064   0.00071   0.00081
                          11        12        13        14        15
                        (A)--O    (A)--O    (A)--O    (E)--O    (E)--O
     EIGENVALUES --    -0.83239  -0.56100  -0.39920  -0.39393  -0.39393
   1 1   Cl 1S          0.03655  -0.01041  -0.00593   0.00000   0.00000
   2        2S          0.10458  -0.02993  -0.01715   0.00000   0.00000
   3        3S         -0.21167   0.06172   0.03626   0.00000   0.00000
   4        4S         -0.39408   0.11309   0.06296   0.00000   0.00000
   5        5S          0.60045  -0.18098  -0.10167   0.00000   0.00000
   6        6S          0.54423  -0.18913  -0.11912   0.00000   0.00000
   7        7PX         0.00000   0.00000   0.00000  -0.10398  -0.10263
   8        7PY         0.00000   0.00000   0.00000   0.10263  -0.10398
   9        7PZ        -0.04257  -0.09575  -0.28960   0.00000   0.00000
  10        8PX         0.00000   0.00000   0.00000  -0.02547  -0.02514
  11        8PY         0.00000   0.00000   0.00000   0.02514  -0.02547
  12        8PZ        -0.01045  -0.02350  -0.07155   0.00000   0.00000
  13        9PX         0.00000   0.00000   0.00000   0.07595   0.07496
  14        9PY         0.00000   0.00000   0.00000  -0.07496   0.07595
  15        9PZ         0.02505   0.06584   0.21260   0.00000   0.00000
  16       10PX         0.00000   0.00000   0.00000   0.16773   0.16555
  17       10PY         0.00000   0.00000   0.00000  -0.16555   0.16773
  18       10PZ         0.07346   0.15131   0.46392   0.00000   0.00000
  19       11PX         0.00000   0.00000   0.00000   0.09734   0.09608
  20       11PY         0.00000   0.00000   0.00000  -0.09608   0.09734
  21       11PZ         0.01735   0.03372   0.21679   0.00000   0.00000
  22       12S         -0.07239  -0.07073  -0.04633   0.00000   0.00000
  23       12PX         0.00000   0.00000   0.00000  -0.01368  -0.01350
  24       12PY         0.00000   0.00000   0.00000   0.01350  -0.01368
  25       12PZ        -0.02323  -0.02140  -0.02188   0.00000   0.00000
  26       13D 0        0.02203   0.01983   0.03570   0.00000   0.00000
  27       13D+1        0.00000   0.00000   0.00000   0.01544   0.01524
  28       13D-1        0.00000   0.00000   0.00000  -0.01524   0.01544
  29       13D+2        0.00000   0.00000   0.00000   0.00088   0.00087
  30       13D-2        0.00000   0.00000   0.00000   0.00087  -0.00088
  31 2   Si 1S          0.00745   0.02650  -0.00191   0.00000   0.00000
  32        2S          0.02027   0.07248  -0.00532   0.00000   0.00000
  33        3S         -0.04450  -0.16324   0.01284   0.00000   0.00000
  34        4S         -0.07652  -0.27738   0.01732   0.00000   0.00000
  35        5S          0.14067   0.51996  -0.02179   0.00000   0.00000
  36        6S          0.03780   0.30409  -0.03405   0.00000   0.00000
  37        7PX         0.00000   0.00000   0.00000  -0.04963  -0.04899
  38        7PY         0.00000   0.00000   0.00000   0.04899  -0.04963
  39        7PZ         0.01923  -0.00839   0.05782   0.00000   0.00000
  40        8PX         0.00000   0.00000   0.00000  -0.08720  -0.08607
  41        8PY         0.00000   0.00000   0.00000   0.08607  -0.08720
  42        8PZ         0.03467  -0.01463   0.10244   0.00000   0.00000
  43        9PX         0.00000   0.00000   0.00000   0.10707   0.10569
  44        9PY         0.00000   0.00000   0.00000  -0.10569   0.10707
  45        9PZ        -0.03869   0.01453  -0.13317   0.00000   0.00000
  46       10PX         0.00000   0.00000   0.00000   0.22088   0.21802
  47       10PY         0.00000   0.00000   0.00000  -0.21802   0.22088
  48       10PZ        -0.05678   0.02429  -0.25585   0.00000   0.00000
  49       11PX         0.00000   0.00000   0.00000   0.01099   0.01085
  50       11PY         0.00000   0.00000   0.00000  -0.01085   0.01099
  51       11PZ         0.02449  -0.00283   0.01573   0.00000   0.00000
  52       12S          0.05298   0.04384   0.00834   0.00000   0.00000
  53       12PX         0.00000   0.00000   0.00000   0.01422   0.01403
  54       12PY         0.00000   0.00000   0.00000  -0.01403   0.01422
  55       12PZ        -0.03647  -0.01134  -0.02814   0.00000   0.00000
  56       13D 0        0.03002  -0.01368   0.07537   0.00000   0.00000
  57       13D+1        0.00000   0.00000   0.00000   0.01055   0.01041
  58       13D-1        0.00000   0.00000   0.00000  -0.01041   0.01055
  59       13D+2        0.00000   0.00000   0.00000   0.04112   0.04059
  60       13D-2        0.00000   0.00000   0.00000   0.04059  -0.04112
  61 3   H  1S          0.00710   0.07923  -0.05136   0.10415   0.10280
  62        2S          0.01313   0.11279  -0.07957   0.15127   0.14931
  63        3S         -0.00674   0.01306  -0.05068   0.10979   0.10836
  64 4   H  1S          0.00710   0.07923  -0.05136  -0.14110   0.03880
  65        2S          0.01313   0.11279  -0.07957  -0.20495   0.05635
  66        3S         -0.00674   0.01306  -0.05068  -0.14874   0.04090
  67 5   H  1S          0.00710   0.07923  -0.05136   0.03695  -0.14160
  68        2S          0.01313   0.11279  -0.07957   0.05367  -0.20566
  69        3S         -0.00674   0.01306  -0.05068   0.03895  -0.14926
                          16        17        18        19        20
                        (E)--O    (E)--O    (A)--V    (A)--V    (E)--V
     EIGENVALUES --    -0.32296  -0.32296  -0.02641  -0.00384   0.03448
   1 1   Cl 1S          0.00000   0.00000   0.00936  -0.00163   0.00000
   2        2S          0.00000   0.00000   0.02710  -0.00459   0.00000
   3        3S          0.00000   0.00000  -0.05778   0.00857   0.00000
   4        4S          0.00000   0.00000  -0.10270   0.02282   0.00000
   5        5S          0.00000   0.00000   0.15903  -0.05632   0.00000
   6        6S          0.00000   0.00000   0.45564  -0.01443   0.00000
   7        7PX        -0.22164   0.21835   0.00000   0.00000   0.03901
   8        7PY        -0.21835  -0.22164   0.00000   0.00000  -0.02778
   9        7PZ         0.00000   0.00000  -0.12160  -0.04288   0.00000
  10        8PX        -0.05427   0.05346   0.00000   0.00000   0.00951
  11        8PY        -0.05346  -0.05427   0.00000   0.00000  -0.00677
  12        8PZ         0.00000   0.00000  -0.02898  -0.01045   0.00000
  13        9PX         0.16545  -0.16299   0.00000   0.00000  -0.03192
  14        9PY         0.16299   0.16545   0.00000   0.00000   0.02273
  15        9PZ         0.00000   0.00000   0.09058   0.03487   0.00000
  16       10PX         0.36337  -0.35797   0.00000   0.00000  -0.07126
  17       10PY         0.35797   0.36337   0.00000   0.00000   0.05072
  18       10PZ         0.00000   0.00000   0.25387   0.06831   0.00000
  19       11PX         0.24923  -0.24553   0.00000   0.00000  -0.06960
  20       11PY         0.24553   0.24923   0.00000   0.00000   0.04965
  21       11PZ         0.00000   0.00000   0.39760   0.14661   0.00000
  22       12S          0.00000   0.00000   1.30022  -1.12134   0.00000
  23       12PX        -0.02467   0.02431   0.00000   0.00000  -0.18354
  24       12PY        -0.02431  -0.02467   0.00000   0.00000   0.13059
  25       12PZ         0.00000   0.00000   0.42590  -0.48919   0.00000
  26       13D 0        0.00000   0.00000  -0.02481  -0.03115   0.00000
  27       13D+1        0.01052  -0.01036   0.00000   0.00000   0.00600
  28       13D-1        0.01036   0.01052   0.00000   0.00000  -0.00429
  29       13D+2       -0.00095   0.00092   0.00000   0.00000  -0.00488
  30       13D-2        0.00092   0.00095   0.00000   0.00000  -0.00348
  31 2   Si 1S          0.00000   0.00000  -0.00836  -0.01485   0.00000
  32        2S          0.00000   0.00000  -0.02314  -0.04088   0.00000
  33        3S          0.00000   0.00000   0.05493   0.09476   0.00000
  34        4S          0.00000   0.00000   0.08950   0.16952   0.00000
  35        5S          0.00000   0.00000  -0.13554  -0.31816   0.00000
  36        6S          0.00000   0.00000  -0.62188  -1.13259   0.00000
  37        7PX         0.01879  -0.01851   0.00000   0.00000   0.00622
  38        7PY         0.01851   0.01879   0.00000   0.00000  -0.00440
  39        7PZ         0.00000   0.00000  -0.05283   0.01368   0.00000
  40        8PX         0.03371  -0.03321   0.00000   0.00000   0.01435
  41        8PY         0.03321   0.03371   0.00000   0.00000  -0.01016
  42        8PZ         0.00000   0.00000  -0.08823   0.02460   0.00000
  43        9PX        -0.04951   0.04877   0.00000   0.00000  -0.04637
  44        9PY        -0.04877  -0.04951   0.00000   0.00000   0.03293
  45        9PZ         0.00000   0.00000   0.09207  -0.04156   0.00000
  46       10PX        -0.05866   0.05779   0.00000   0.00000   0.06418
  47       10PY        -0.05779  -0.05866   0.00000   0.00000  -0.04586
  48       10PZ         0.00000   0.00000   0.40790  -0.02273   0.00000
  49       11PX        -0.00299   0.00294   0.00000   0.00000  -0.06375
  50       11PY        -0.00294  -0.00299   0.00000   0.00000   0.04438
  51       11PZ         0.00000   0.00000   0.77219  -0.57287   0.00000
  52       12S          0.00000   0.00000  -0.85638   2.27740   0.00000
  53       12PX         0.00499  -0.00492   0.00000   0.00000   1.23848
  54       12PY         0.00492   0.00499   0.00000   0.00000  -0.88058
  55       12PZ         0.00000   0.00000   0.76920  -0.09240   0.00000
  56       13D 0        0.00000   0.00000   0.09598  -0.02547   0.00000
  57       13D+1       -0.04791   0.04720   0.00000   0.00000  -0.01763
  58       13D-1       -0.04720  -0.04791   0.00000   0.00000   0.01257
  59       13D+2       -0.02579   0.02541   0.00000   0.00000  -0.06770
  60       13D-2        0.02541   0.02579   0.00000   0.00000  -0.04821
  61 3   H  1S         -0.06488   0.06392  -0.00054   0.01483  -0.04784
  62        2S         -0.11841   0.11665   0.00005   0.07846  -0.06730
  63        3S         -0.09819   0.09674  -0.05188   0.16069  -0.44585
  64 4   H  1S         -0.02291  -0.08815  -0.00054   0.01483   0.05342
  65        2S         -0.04182  -0.16087   0.00005   0.07846   0.07515
  66        3S         -0.03468  -0.13340  -0.05188   0.16069   0.49821
  67 5   H  1S          0.08780   0.02423  -0.00054   0.01483  -0.00558
  68        2S          0.16022   0.04422   0.00005   0.07846  -0.00784
  69        3S          0.13287   0.03667  -0.05188   0.16069  -0.05236
                          21        22        23        24        25
                        (E)--V    (E)--V    (E)--V    (A)--V    (A)--V
     EIGENVALUES --     0.03448   0.03735   0.03735   0.05697   0.06653
   1 1   Cl 1S          0.00000   0.00000   0.00000   0.00615  -0.00411
   2        2S          0.00000   0.00000   0.00000   0.01770  -0.01220
   3        3S          0.00000   0.00000   0.00000  -0.03679   0.02858
   4        4S          0.00000   0.00000   0.00000  -0.07231   0.03588
   5        5S          0.00000   0.00000   0.00000   0.14111  -0.01845
   6        6S          0.00000   0.00000   0.00000   0.16851  -0.39809
   7        7PX         0.02778   0.04813  -0.02821   0.00000   0.00000
   8        7PY         0.03901   0.02821   0.04813   0.00000   0.00000
   9        7PZ         0.00000   0.00000   0.00000   0.05677   0.10648
  10        8PX         0.00677   0.01232  -0.00722   0.00000   0.00000
  11        8PY         0.00951   0.00722   0.01232   0.00000   0.00000
  12        8PZ         0.00000   0.00000   0.00000   0.01564   0.02564
  13        9PX        -0.02273  -0.04456   0.02612   0.00000   0.00000
  14        9PY        -0.03192  -0.02612  -0.04456   0.00000   0.00000
  15        9PZ         0.00000   0.00000   0.00000  -0.06059  -0.08580
  16       10PX        -0.05072  -0.06043   0.03541   0.00000   0.00000
  17       10PY        -0.07126  -0.03541  -0.06043   0.00000   0.00000
  18       10PZ         0.00000   0.00000   0.00000  -0.04236  -0.19591
  19       11PX        -0.04965  -0.25799   0.15127   0.00000   0.00000
  20       11PY        -0.06960  -0.15127  -0.25799   0.00000   0.00000
  21       11PZ         0.00000   0.00000   0.00000  -0.49441  -0.54764
  22       12S          0.00000   0.00000   0.00000  -0.28792  -0.13962
  23       12PX        -0.13059  -0.07395   0.04332   0.00000   0.00000
  24       12PY        -0.18354  -0.04332  -0.07395   0.00000   0.00000
  25       12PZ         0.00000   0.00000   0.00000   1.10473  -0.51298
  26       13D 0        0.00000   0.00000   0.00000  -0.02350   0.07909
  27       13D+1        0.00429   0.05279  -0.03096   0.00000   0.00000
  28       13D-1        0.00600   0.03096   0.05279   0.00000   0.00000
  29       13D+2       -0.00348  -0.01239   0.00727   0.00000   0.00000
  30       13D-2        0.00488   0.00727   0.01239   0.00000   0.00000
  31 2   Si 1S          0.00000   0.00000   0.00000  -0.00738   0.00964
  32        2S          0.00000   0.00000   0.00000  -0.02045   0.02665
  33        3S          0.00000   0.00000   0.00000   0.04860  -0.06273
  34        4S          0.00000   0.00000   0.00000   0.08059  -0.10864
  35        5S          0.00000   0.00000   0.00000  -0.11052   0.16602
  36        6S          0.00000   0.00000   0.00000  -0.94733   1.10029
  37        7PX         0.00440  -0.05145   0.03018   0.00000   0.00000
  38        7PY         0.00622  -0.03018  -0.05145   0.00000   0.00000
  39        7PZ         0.00000   0.00000   0.00000   0.01381   0.05435
  40        8PX         0.01016  -0.08787   0.05155   0.00000   0.00000
  41        8PY         0.01435  -0.05155  -0.08787   0.00000   0.00000
  42        8PZ         0.00000   0.00000   0.00000   0.02203   0.09654
  43        9PX        -0.03293   0.11089  -0.06507   0.00000   0.00000
  44        9PY        -0.04637   0.06507   0.11089   0.00000   0.00000
  45        9PZ         0.00000   0.00000   0.00000  -0.01582  -0.14998
  46       10PX         0.04586   0.39537  -0.23186   0.00000   0.00000
  47       10PY         0.06418   0.23186   0.39537   0.00000   0.00000
  48       10PZ         0.00000   0.00000   0.00000  -0.15482  -0.32339
  49       11PX        -0.04438   1.84149  -1.08020   0.00000   0.00000
  50       11PY        -0.06375   1.08020   1.84149   0.00000   0.00000
  51       11PZ         0.00000   0.00000   0.00000  -0.76804  -1.50727
  52       12S          0.00000   0.00000   0.00000  -0.87018   0.14873
  53       12PX         0.88058  -0.70776   0.41578   0.00000   0.00000
  54       12PY         1.23848  -0.41578  -0.70776   0.00000   0.00000
  55       12PZ         0.00000   0.00000   0.00000   0.28025   1.92734
  56       13D 0        0.00000   0.00000   0.00000  -0.08556  -0.01169
  57       13D+1       -0.01257  -0.04998   0.02931   0.00000   0.00000
  58       13D-1       -0.01763  -0.02931  -0.04998   0.00000   0.00000
  59       13D+2       -0.04821  -0.10302   0.06039   0.00000   0.00000
  60       13D-2        0.06770   0.06039   0.10302   0.00000   0.00000
  61 3   H  1S         -0.03406  -0.06108   0.03580   0.04741  -0.02539
  62        2S         -0.04791  -0.09663   0.05664   0.09878  -0.05845
  63        3S         -0.31787  -1.34644   0.78954   0.57814  -0.14996
  64 4   H  1S         -0.02440  -0.00047  -0.07080   0.04741  -0.02539
  65        2S         -0.03433  -0.00074  -0.11201   0.09878  -0.05845
  66        3S         -0.22719  -0.01054  -1.56082   0.57814  -0.14996
  67 5   H  1S          0.05846   0.06155   0.03500   0.04741  -0.02539
  68        2S          0.08224   0.09737   0.05537   0.09878  -0.05845
  69        3S          0.54506   1.35698   0.77128   0.57814  -0.14996
                          26        27        28        29        30
                        (E)--V    (E)--V    (A)--V    (A)--V    (A)--V
     EIGENVALUES --     0.09536   0.09536   0.12456   0.15036   0.24800
   1 1   Cl 1S          0.00000   0.00000  -0.00328  -0.00861  -0.00347
   2        2S          0.00000   0.00000  -0.00954  -0.02540  -0.01006
   3        3S          0.00000   0.00000   0.02080   0.05815   0.02142
   4        4S          0.00000   0.00000   0.03503   0.08181   0.04000
   5        5S          0.00000   0.00000  -0.04795  -0.07030  -0.07195
   6        6S          0.00000   0.00000  -0.24698  -1.10396   0.12038
   7        7PX        -0.00913   0.10870   0.00000   0.00000   0.00000
   8        7PY         0.10870   0.00913   0.00000   0.00000   0.00000
   9        7PZ         0.00000   0.00000   0.09213  -0.01253   0.06461
  10        8PX        -0.00241   0.02876   0.00000   0.00000   0.00000
  11        8PY         0.02876   0.00241   0.00000   0.00000   0.00000
  12        8PZ         0.00000   0.00000   0.02322  -0.00420   0.01522
  13        9PX         0.00913  -0.10868   0.00000   0.00000   0.00000
  14        9PY        -0.10868  -0.00913   0.00000   0.00000   0.00000
  15        9PZ         0.00000   0.00000  -0.08262   0.02248  -0.05348
  16       10PX         0.00944  -0.11241   0.00000   0.00000   0.00000
  17       10PY        -0.11241  -0.00944   0.00000   0.00000   0.00000
  18       10PZ         0.00000   0.00000  -0.14407  -0.05454  -0.10465
  19       11PX         0.05970  -0.71101   0.00000   0.00000   0.00000
  20       11PY        -0.71101  -0.05970   0.00000   0.00000   0.00000
  21       11PZ         0.00000   0.00000  -0.54282   0.45664  -0.51978
  22       12S          0.00000   0.00000   0.29355   7.75473   1.86872
  23       12PX        -0.16742   1.99379   0.00000   0.00000   0.00000
  24       12PY         1.99379   0.16742   0.00000   0.00000   0.00000
  25       12PZ         0.00000   0.00000   1.55046   2.36582   1.53810
  26       13D 0        0.00000   0.00000  -0.01695  -0.08560   0.13781
  27       13D+1        0.00169  -0.02008   0.00000   0.00000   0.00000
  28       13D-1       -0.02008  -0.00169   0.00000   0.00000   0.00000
  29       13D+2       -0.00010   0.00123   0.00000   0.00000   0.00000
  30       13D-2       -0.00123  -0.00010   0.00000   0.00000   0.00000
  31 2   Si 1S          0.00000   0.00000   0.01171  -0.00652  -0.00234
  32        2S          0.00000   0.00000   0.03238  -0.01816  -0.00668
  33        3S          0.00000   0.00000  -0.07660   0.04398   0.01777
  34        4S          0.00000   0.00000  -0.13193   0.07060   0.01920
  35        5S          0.00000   0.00000   0.20491  -0.05458  -0.04480
  36        6S          0.00000   0.00000   1.31746  -1.98427  -0.54664
  37        7PX         0.00065  -0.00781   0.00000   0.00000   0.00000
  38        7PY        -0.00781  -0.00065   0.00000   0.00000   0.00000
  39        7PZ         0.00000   0.00000  -0.01096   0.00535   0.07657
  40        8PX         0.00108  -0.01291   0.00000   0.00000   0.00000
  41        8PY        -0.01291  -0.00108   0.00000   0.00000   0.00000
  42        8PZ         0.00000   0.00000  -0.01899   0.00666   0.12150
  43        9PX        -0.00105   0.01258   0.00000   0.00000   0.00000
  44        9PY         0.01258   0.00105   0.00000   0.00000   0.00000
  45        9PZ         0.00000   0.00000   0.02591   0.00669  -0.08158
  46       10PX        -0.00775   0.09251   0.00000   0.00000   0.00000
  47       10PY         0.09251   0.00775   0.00000   0.00000   0.00000
  48       10PZ         0.00000   0.00000   0.10409   0.00028  -1.46550
  49       11PX         0.01398  -0.16621   0.00000   0.00000   0.00000
  50       11PY        -0.16621  -0.01398   0.00000   0.00000   0.00000
  51       11PZ         0.00000   0.00000   0.88322   0.87051   3.33858
  52       12S          0.00000   0.00000   1.22394  -5.79703  -1.79580
  53       12PX         0.07991  -0.95172   0.00000   0.00000   0.00000
  54       12PY        -0.95172  -0.07991   0.00000   0.00000   0.00000
  55       12PZ         0.00000   0.00000  -0.44097   2.33334  -1.42907
  56       13D 0        0.00000   0.00000   0.02158  -0.06302   0.11415
  57       13D+1        0.00071  -0.00842   0.00000   0.00000   0.00000
  58       13D-1       -0.00842  -0.00071   0.00000   0.00000   0.00000
  59       13D+2       -0.00153   0.01813   0.00000   0.00000   0.00000
  60       13D-2       -0.01813  -0.00153   0.00000   0.00000   0.00000
  61 3   H  1S         -0.00051   0.00605  -0.07983   0.01489  -0.01249
  62        2S          0.00024  -0.00303  -0.13256   0.03414  -0.12000
  63        3S         -0.00795   0.09460  -1.38363   0.53165   0.26081
  64 4   H  1S          0.00550  -0.00258  -0.07983   0.01489  -0.01249
  65        2S         -0.00275   0.00131  -0.13256   0.03414  -0.12000
  66        3S          0.08590  -0.04041  -1.38363   0.53165   0.26081
  67 5   H  1S         -0.00499  -0.00347  -0.07983   0.01489  -0.01249
  68        2S          0.00251   0.00173  -0.13256   0.03414  -0.12000
  69        3S         -0.07795  -0.05419  -1.38363   0.53165   0.26081
                          31        32        33        34        35
                        (E)--V    (E)--V    (E)--V    (E)--V    (A)--V
     EIGENVALUES --     0.24961   0.24961   0.34267   0.34267   0.39350
   1 1   Cl 1S          0.00000   0.00000   0.00000   0.00000   0.00467
   2        2S          0.00000   0.00000   0.00000   0.00000   0.01345
   3        3S          0.00000   0.00000   0.00000   0.00000  -0.02792
   4        4S          0.00000   0.00000   0.00000   0.00000  -0.05845
   5        5S          0.00000   0.00000   0.00000   0.00000   0.14097
   6        6S          0.00000   0.00000   0.00000   0.00000   0.13052
   7        7PX         0.01507   0.00263  -0.05578  -0.04597   0.00000
   8        7PY        -0.00263   0.01507   0.04597  -0.05578   0.00000
   9        7PZ         0.00000   0.00000   0.00000   0.00000   0.04074
  10        8PX         0.00420   0.00073  -0.01241  -0.01022   0.00000
  11        8PY        -0.00073   0.00420   0.01022  -0.01241   0.00000
  12        8PZ         0.00000   0.00000   0.00000   0.00000   0.00544
  13        9PX        -0.01727  -0.00302   0.04113   0.03389   0.00000
  14        9PY         0.00302  -0.01727  -0.03389   0.04113   0.00000
  15        9PZ         0.00000   0.00000   0.00000   0.00000   0.00421
  16       10PX        -0.01056  -0.00184   0.16277   0.13416   0.00000
  17       10PY         0.00184  -0.01056  -0.13416   0.16277   0.00000
  18       10PZ         0.00000   0.00000   0.00000   0.00000  -0.33403
  19       11PX        -0.27872  -0.04869  -0.30127  -0.24831   0.00000
  20       11PY         0.04869  -0.27872   0.24831  -0.30127   0.00000
  21       11PZ         0.00000   0.00000   0.00000   0.00000   0.92587
  22       12S          0.00000   0.00000   0.00000   0.00000   0.97080
  23       12PX         0.29846   0.05214  -0.08072  -0.06651   0.00000
  24       12PY        -0.05214   0.29846   0.06651  -0.08072   0.00000
  25       12PZ         0.00000   0.00000   0.00000   0.00000   0.38714
  26       13D 0        0.00000   0.00000   0.00000   0.00000  -0.05020
  27       13D+1       -0.00913  -0.00160  -0.08770  -0.07228   0.00000
  28       13D-1        0.00160  -0.00913   0.07228  -0.08770   0.00000
  29       13D+2       -0.00033  -0.00006  -0.02505  -0.02065   0.00000
  30       13D-2       -0.00006   0.00033  -0.02065   0.02505   0.00000
  31 2   Si 1S          0.00000   0.00000   0.00000   0.00000  -0.00158
  32        2S          0.00000   0.00000   0.00000   0.00000  -0.00447
  33        3S          0.00000   0.00000   0.00000   0.00000   0.01158
  34        4S          0.00000   0.00000   0.00000   0.00000   0.01418
  35        5S          0.00000   0.00000   0.00000   0.00000   0.30210
  36        6S          0.00000   0.00000   0.00000   0.00000  -0.22513
  37        7PX         0.07162   0.01251   0.03304   0.02723   0.00000
  38        7PY        -0.01251   0.07162  -0.02723   0.03304   0.00000
  39        7PZ         0.00000   0.00000   0.00000   0.00000   0.03959
  40        8PX         0.11104   0.01940   0.05112   0.04213   0.00000
  41        8PY        -0.01940   0.11104  -0.04213   0.05112   0.00000
  42        8PZ         0.00000   0.00000   0.00000   0.00000   0.05958
  43        9PX        -0.05932  -0.01036  -0.01240  -0.01023   0.00000
  44        9PY         0.01036  -0.05932   0.01023  -0.01240   0.00000
  45        9PZ         0.00000   0.00000   0.00000   0.00000  -0.01496
  46       10PX        -1.35767  -0.23720  -0.60119  -0.49548   0.00000
  47       10PY         0.23720  -1.35767   0.49548  -0.60119   0.00000
  48       10PZ         0.00000   0.00000   0.00000   0.00000  -0.65559
  49       11PX         2.88771   0.50450   1.76053   1.45095   0.00000
  50       11PY        -0.50450   2.88771  -1.45095   1.76053   0.00000
  51       11PZ         0.00000   0.00000   0.00000   0.00000   2.42247
  52       12S          0.00000   0.00000   0.00000   0.00000   1.23769
  53       12PX        -1.93171  -0.33746  -0.03844  -0.03172   0.00000
  54       12PY         0.33746  -1.93171   0.03172  -0.03844   0.00000
  55       12PZ         0.00000   0.00000   0.00000   0.00000  -0.71399
  56       13D 0        0.00000   0.00000   0.00000   0.00000  -0.20640
  57       13D+1        0.00285   0.00050   0.20828   0.17165   0.00000
  58       13D-1       -0.00050   0.00285  -0.17165   0.20828   0.00000
  59       13D+2       -0.07315  -0.01278   0.09315   0.07676   0.00000
  60       13D-2       -0.01278   0.07315   0.07676  -0.09315   0.00000
  61 3   H  1S         -0.00996  -0.00174   0.05770   0.04755   0.07141
  62        2S         -0.09338  -0.01629   0.88434   0.72880   0.83817
  63        3S          0.19599   0.03419  -2.11029  -1.73912  -1.76884
  64 4   H  1S          0.00648  -0.00775  -0.07003   0.02620   0.07141
  65        2S          0.06079  -0.07272  -1.07333   0.40146   0.83817
  66        3S         -0.12761   0.15264   2.56127  -0.95801  -1.76884
  67 5   H  1S          0.00347   0.00949   0.01233  -0.07375   0.07141
  68        2S          0.03258   0.08901   0.18898  -1.13026   0.83817
  69        3S         -0.06839  -0.18683  -0.45098   2.69713  -1.76884
                          36        37        38        39        40
                        (A)--V    (E)--V    (E)--V    (A)--V    (E)--V
     EIGENVALUES --     0.41976   0.46347   0.46347   0.49462   0.54789
   1 1   Cl 1S          0.00426   0.00000   0.00000   0.00083   0.00000
   2        2S          0.01288   0.00000   0.00000   0.00211   0.00000
   3        3S         -0.03212   0.00000   0.00000  -0.00189   0.00000
   4        4S         -0.03246   0.00000   0.00000  -0.02076   0.00000
   5        5S          0.01007   0.00000   0.00000   0.11751   0.00000
   6        6S          0.42506   0.00000   0.00000  -0.46962   0.00000
   7        7PX         0.00000   0.13103   0.15495   0.00000  -0.03059
   8        7PY         0.00000   0.15495  -0.13103   0.00000   0.05159
   9        7PZ         0.16447   0.00000   0.00000  -0.07474   0.00000
  10        8PX         0.00000   0.02470   0.02920   0.00000  -0.00434
  11        8PY         0.00000   0.02920  -0.02470   0.00000   0.00731
  12        8PZ         0.03073   0.00000   0.00000  -0.01763   0.00000
  13        9PX         0.00000  -0.06096  -0.07208   0.00000   0.00092
  14        9PY         0.00000  -0.07208   0.06096   0.00000  -0.00155
  15        9PZ        -0.06396   0.00000   0.00000   0.07008   0.00000
  16       10PX         0.00000  -0.63136  -0.74663   0.00000   0.23510
  17       10PY         0.00000  -0.74663   0.63136   0.00000  -0.39645
  18       10PZ        -0.89032   0.00000   0.00000   0.15009   0.00000
  19       11PX         0.00000   1.38476   1.63759   0.00000  -0.63321
  20       11PY         0.00000   1.63759  -1.38476   0.00000   1.06776
  21       11PZ         2.45491   0.00000   0.00000  -1.34871   0.00000
  22       12S         -0.37179   0.00000   0.00000  -3.63896   0.00000
  23       12PX         0.00000  -1.03246  -1.22097   0.00000   0.37053
  24       12PY         0.00000  -1.22097   1.03246   0.00000  -0.62481
  25       12PZ        -1.72045   0.00000   0.00000  -0.86605   0.00000
  26       13D 0       -0.15403   0.00000   0.00000  -0.06268   0.00000
  27       13D+1        0.00000   0.00670   0.00792   0.00000   0.16027
  28       13D-1        0.00000   0.00792  -0.00670   0.00000  -0.27026
  29       13D+2        0.00000   0.00148   0.00179   0.00000   0.00927
  30       13D-2        0.00000  -0.00179   0.00148   0.00000   0.01567
  31 2   Si 1S          0.00022   0.00000   0.00000  -0.02795   0.00000
  32        2S          0.00169   0.00000   0.00000  -0.07344   0.00000
  33        3S         -0.01432   0.00000   0.00000   0.13712   0.00000
  34        4S          0.04334   0.00000   0.00000   0.51747   0.00000
  35        5S         -0.46748   0.00000   0.00000  -3.26399   0.00000
  36        6S         -0.36050   0.00000   0.00000   7.78992   0.00000
  37        7PX         0.00000   0.00549   0.00650   0.00000   0.01041
  38        7PY         0.00000   0.00650  -0.00549   0.00000  -0.01756
  39        7PZ         0.01212   0.00000   0.00000  -0.00419   0.00000
  40        8PX         0.00000   0.00627   0.00741   0.00000   0.01926
  41        8PY         0.00000   0.00741  -0.00627   0.00000  -0.03248
  42        8PZ         0.01629   0.00000   0.00000  -0.01556   0.00000
  43        9PX         0.00000   0.02341   0.02768   0.00000  -0.04752
  44        9PY         0.00000   0.02768  -0.02341   0.00000   0.08014
  45        9PZ        -0.01425   0.00000   0.00000   0.09720   0.00000
  46       10PX         0.00000  -0.21457  -0.25375   0.00000  -0.04526
  47       10PY         0.00000  -0.25375   0.21457   0.00000   0.07632
  48       10PZ         0.26270   0.00000   0.00000  -0.26587   0.00000
  49       11PX         0.00000   0.10733   0.12696   0.00000   0.37570
  50       11PY         0.00000   0.12696  -0.10733   0.00000  -0.63355
  51       11PZ         0.14738   0.00000   0.00000  -0.58762   0.00000
  52       12S         -0.33983   0.00000   0.00000   2.26995   0.00000
  53       12PX         0.00000   0.40698   0.48129   0.00000  -0.17507
  54       12PY         0.00000   0.48129  -0.40698   0.00000   0.29522
  55       12PZ        -0.20025   0.00000   0.00000  -0.61110   0.00000
  56       13D 0       -0.21916   0.00000   0.00000  -0.17676   0.00000
  57       13D+1        0.00000  -0.16376  -0.19365   0.00000  -0.36124
  58       13D-1        0.00000  -0.19365   0.16376   0.00000   0.60914
  59       13D+2        0.00000   0.17430   0.20612   0.00000   0.23698
  60       13D-2        0.00000  -0.20612   0.17430   0.00000   0.39962
  61 3   H  1S         -0.04528   0.00788   0.00932   0.02561   0.01000
  62        2S         -0.40072   0.22958   0.27151   0.02277   0.07360
  63        3S          0.83783  -0.41255  -0.48791  -1.76818  -0.25001
  64 4   H  1S         -0.04528   0.00413  -0.01149   0.02561  -0.01960
  65        2S         -0.40072   0.12034  -0.33458   0.02277  -0.14428
  66        3S          0.83783  -0.21627   0.60123  -1.76818   0.49013
  67 5   H  1S         -0.04528  -0.01201   0.00216   0.02561   0.00960
  68        2S         -0.40072  -0.34993   0.06307   0.02277   0.07068
  69        3S          0.83783   0.62882  -0.11332  -1.76818  -0.24012
                          41        42        43        44        45
                        (E)--V    (A)--V    (E)--V    (E)--V    (E)--V
     EIGENVALUES --     0.54789   0.70152   0.81663   0.81663   0.88209
   1 1   Cl 1S          0.00000  -0.00386   0.00000   0.00000   0.00000
   2        2S          0.00000  -0.01165   0.00000   0.00000   0.00000
   3        3S          0.00000   0.02892   0.00000   0.00000   0.00000
   4        4S          0.00000   0.03201   0.00000   0.00000   0.00000
   5        5S          0.00000  -0.03612   0.00000   0.00000   0.00000
   6        6S          0.00000  -0.32687   0.00000   0.00000   0.00000
   7        7PX         0.05159   0.00000  -0.01612  -0.01162  -0.00940
   8        7PY         0.03059   0.00000  -0.01162   0.01612  -0.00973
   9        7PZ         0.00000   0.13957   0.00000   0.00000   0.00000
  10        8PX         0.00731   0.00000  -0.00369  -0.00266  -0.00197
  11        8PY         0.00434   0.00000  -0.00266   0.00369  -0.00203
  12        8PZ         0.00000   0.02773   0.00000   0.00000   0.00000
  13        9PX        -0.00155   0.00000   0.01560   0.01126   0.00761
  14        9PY        -0.00092   0.00000   0.01126  -0.01560   0.00785
  15        9PZ         0.00000  -0.09434   0.00000   0.00000   0.00000
  16       10PX        -0.39645   0.00000   0.04837   0.03481   0.03851
  17       10PY        -0.23510   0.00000   0.03481  -0.04837   0.03999
  18       10PZ         0.00000  -0.52826   0.00000   0.00000   0.00000
  19       11PX         1.06776   0.00000  -0.18257  -0.13147  -0.12439
  20       11PY         0.63321   0.00000  -0.13147   0.18257  -0.12907
  21       11PZ         0.00000   0.78725   0.00000   0.00000   0.00000
  22       12S          0.00000  -0.46933   0.00000   0.00000   0.00000
  23       12PX        -0.62481   0.00000   0.12794   0.09213   0.09761
  24       12PY        -0.37053   0.00000   0.09213  -0.12794   0.10126
  25       12PZ         0.00000  -0.69686   0.00000   0.00000   0.00000
  26       13D 0        0.00000   0.39338   0.00000   0.00000   0.00000
  27       13D+1       -0.27026   0.00000  -0.12856  -0.09263  -0.13590
  28       13D-1       -0.16027   0.00000  -0.09263   0.12856  -0.14086
  29       13D+2       -0.01567   0.00000   0.39954   0.28787  -0.59656
  30       13D-2        0.00927   0.00000  -0.28787   0.39954   0.61839
  31 2   Si 1S          0.00000  -0.01203   0.00000   0.00000   0.00000
  32        2S          0.00000  -0.03269   0.00000   0.00000   0.00000
  33        3S          0.00000   0.07190   0.00000   0.00000   0.00000
  34        4S          0.00000   0.18864   0.00000   0.00000   0.00000
  35        5S          0.00000  -0.99096   0.00000   0.00000   0.00000
  36        6S          0.00000   1.33313   0.00000   0.00000   0.00000
  37        7PX        -0.01756   0.00000  -0.03948  -0.02845  -0.02870
  38        7PY        -0.01041   0.00000  -0.02845   0.03948  -0.02976
  39        7PZ         0.00000   0.01998   0.00000   0.00000   0.00000
  40        8PX        -0.03248   0.00000  -0.08103  -0.05838  -0.06007
  41        8PY        -0.01926   0.00000  -0.05838   0.08103  -0.06227
  42        8PZ         0.00000   0.05660   0.00000   0.00000   0.00000
  43        9PX         0.08014   0.00000   0.25988   0.18724   0.21960
  44        9PY         0.04752   0.00000   0.18724  -0.25988   0.22763
  45        9PZ         0.00000  -0.27396   0.00000   0.00000   0.00000
  46       10PX         0.07632   0.00000   0.09886   0.07124  -0.05884
  47       10PY         0.04526   0.00000   0.07124  -0.09886  -0.06098
  48       10PZ         0.00000   0.58538   0.00000   0.00000   0.00000
  49       11PX        -0.63355   0.00000   0.32800   0.23632   0.15487
  50       11PY        -0.37570   0.00000   0.23632  -0.32800   0.16056
  51       11PZ         0.00000  -1.04007   0.00000   0.00000   0.00000
  52       12S          0.00000   0.63562   0.00000   0.00000   0.00000
  53       12PX         0.29522   0.00000  -0.32657  -0.23528  -0.20240
  54       12PY         0.17507   0.00000  -0.23528   0.32657  -0.20984
  55       12PZ         0.00000   0.45631   0.00000   0.00000   0.00000
  56       13D 0        0.00000   0.78885   0.00000   0.00000   0.00000
  57       13D+1        0.60914   0.00000   0.35315   0.25446   0.10062
  58       13D-1        0.36124   0.00000   0.25446  -0.35315   0.10430
  59       13D+2       -0.39962   0.00000   0.65829   0.47432   0.31583
  60       13D-2        0.23698   0.00000  -0.47432   0.65829  -0.32741
  61 3   H  1S         -0.01686   0.03169  -0.03747  -0.02700  -0.03216
  62        2S         -0.12411   0.36156  -0.77288  -0.55688  -0.36179
  63        3S          0.42161  -0.52207   0.46347   0.33394   0.31661
  64 4   H  1S         -0.00023   0.03169  -0.00465   0.04595  -0.01279
  65        2S         -0.00168   0.36156  -0.09583   0.94777  -0.14391
  66        3S          0.00571  -0.52207   0.05747  -0.56834   0.12593
  67 5   H  1S          0.01709   0.03169   0.04212  -0.01895   0.04495
  68        2S          0.12579   0.36156   0.86871  -0.39089   0.50570
  69        3S         -0.42732  -0.52207  -0.52093   0.23440  -0.44255
                          46        47        48        49        50
                        (E)--V    (A)--V    (E)--V    (E)--V    (A)--V
     EIGENVALUES --     0.88209   0.91913   0.92308   0.92308   1.19412
   1 1   Cl 1S          0.00000   0.03092   0.00000   0.00000  -0.01826
   2        2S          0.00000   0.08438   0.00000   0.00000  -0.04989
   3        3S          0.00000  -0.13458   0.00000   0.00000   0.08002
[...]
  44        9PY         0.00000   0.00000   0.00271   0.00000   0.00000
  45        9PZ         0.00000   0.00000   0.00000   0.00358   0.00000
  46       10PX         0.00000  -0.00191   0.00000   0.00000  -0.02147
  47       10PY         0.00000   0.00000  -0.00191   0.00000   0.00000
  48       10PZ         0.00000   0.00000   0.00000  -0.00140   0.00000
  49       11PX         0.00000   0.00003   0.00000   0.00000   0.00034
  50       11PY         0.00000   0.00000   0.00003   0.00000   0.00000
  51       11PZ         0.00000   0.00000   0.00000   0.00008   0.00000
  52       12S          0.02551   0.00000   0.00000   0.00000   0.00000
  53       12PX         0.00000  -0.00002   0.00000   0.00000  -0.00024
  54       12PY         0.00000   0.00000  -0.00002   0.00000   0.00000
  55       12PZ         0.00000   0.00000   0.00000  -0.00003   0.00000
  56       13D 0        0.00000   0.00000   0.00000   0.00000   0.00000
  57       13D+1        0.00000   0.00000   0.00000   0.00000   0.00000
  58       13D-1        0.00000   0.00000   0.00000   0.00000   0.00000
  59       13D+2        0.00000   0.00000   0.00000   0.00000   0.00000
  60       13D-2        0.00000   0.00000   0.00000   0.00000   0.00000
  61 3   H  1S          0.00932   0.00000   0.00000   0.00000  -0.00035
  62        2S          0.03238  -0.00032   0.00000  -0.00003  -0.00426
  63        3S          0.00687  -0.00019   0.00000  -0.00001  -0.00239
  64 4   H  1S          0.00932   0.00000   0.00000   0.00000  -0.00009
  65        2S          0.03238  -0.00008  -0.00024  -0.00003  -0.00107
  66        3S          0.00687  -0.00005  -0.00014  -0.00001  -0.00060
  67 5   H  1S          0.00932   0.00000   0.00000   0.00000  -0.00009
  68        2S          0.03238  -0.00008  -0.00024  -0.00003  -0.00107
  69        3S          0.00687  -0.00005  -0.00014  -0.00001  -0.00060
                          41        42        43        44        45
  41        8PY         0.98199
  42        8PZ         0.00000   0.97135
  43        9PX         0.00000   0.00000   0.06245
  44        9PY         0.02173   0.00000   0.00000   0.06245
  45        9PZ         0.00000   0.02913   0.00000   0.00000   0.04657
  46       10PX         0.00000   0.00000   0.07677   0.00000   0.00000
  47       10PY        -0.02147   0.00000   0.00000   0.07677   0.00000
  48       10PZ         0.00000  -0.01581   0.00000   0.00000   0.05328
  49       11PX         0.00000   0.00000   0.00196   0.00000   0.00000
  50       11PY         0.00034   0.00000   0.00000   0.00196   0.00000
  51       11PZ         0.00000   0.00106   0.00000   0.00000  -0.00169
  52       12S          0.00000   0.00000   0.00000   0.00000   0.00000
  53       12PX         0.00000   0.00000   0.00075   0.00000   0.00000
  54       12PY        -0.00024   0.00000   0.00000   0.00075   0.00000
  55       12PZ         0.00000  -0.00035   0.00000   0.00000   0.00155
  56       13D 0        0.00000   0.00000   0.00000   0.00000   0.00000
  57       13D+1        0.00000   0.00000   0.00000   0.00000   0.00000
  58       13D-1        0.00000   0.00000   0.00000   0.00000   0.00000
  59       13D+2        0.00000   0.00000   0.00000   0.00000   0.00000
  60       13D-2        0.00000   0.00000   0.00000   0.00000   0.00000
  61 3   H  1S          0.00000  -0.00003   0.00766   0.00000   0.00069
  62        2S          0.00000  -0.00039   0.02652   0.00000   0.00236
  63        3S          0.00000  -0.00018   0.01390   0.00000   0.00101
  64 4   H  1S         -0.00026  -0.00003   0.00191   0.00574   0.00069
  65        2S         -0.00320  -0.00039   0.00663   0.01989   0.00236
  66        3S         -0.00179  -0.00018   0.00348   0.01043   0.00101
  67 5   H  1S         -0.00026  -0.00003   0.00191   0.00574   0.00069
  68        2S         -0.00320  -0.00039   0.00663   0.01989   0.00236
  69        3S         -0.00179  -0.00018   0.00348   0.01043   0.00101
                          46        47        48        49        50
  46       10PX         0.20644
  47       10PY         0.00000   0.20644
  48       10PZ         0.00000   0.00000   0.13882
  49       11PX         0.00730   0.00000   0.00000   0.00060
  50       11PY         0.00000   0.00730   0.00000   0.00000   0.00060
  51       11PZ         0.00000   0.00000  -0.00804   0.00000   0.00000
  52       12S          0.00000   0.00000   0.00000   0.00000   0.00000
  53       12PX         0.00490   0.00000   0.00000   0.00045   0.00000
  54       12PY         0.00000   0.00490   0.00000   0.00000   0.00045
  55       12PZ         0.00000   0.00000   0.00782   0.00000   0.00000
  56       13D 0        0.00000   0.00000   0.00000   0.00000   0.00000
  57       13D+1        0.00000   0.00000   0.00000   0.00000   0.00000
  58       13D-1        0.00000   0.00000   0.00000   0.00000   0.00000
  59       13D+2        0.00000   0.00000   0.00000   0.00000   0.00000
  60       13D-2        0.00000   0.00000   0.00000   0.00000   0.00000
  61 3   H  1S          0.03173   0.00000   0.00291   0.00117   0.00000
  62        2S          0.08683   0.00000   0.00807   0.00380   0.00000
  63        3S          0.05386   0.00000   0.00411   0.00345   0.00000
  64 4   H  1S          0.00793   0.02379   0.00291   0.00029   0.00088
  65        2S          0.02171   0.06512   0.00807   0.00095   0.00285
  66        3S          0.01346   0.04039   0.00411   0.00086   0.00259
  67 5   H  1S          0.00793   0.02379   0.00291   0.00029   0.00087
  68        2S          0.02171   0.06512   0.00807   0.00095   0.00285
  69        3S          0.01346   0.04039   0.00411   0.00086   0.00259
                          51        52        53        54        55
  51       11PZ         0.00189
  52       12S          0.00000   0.00999
  53       12PX         0.00000   0.00000   0.00091
  54       12PY         0.00000   0.00000   0.00000   0.00091
  55       12PZ        -0.00229   0.00000   0.00000   0.00000   0.00458
  56       13D 0        0.00000   0.00000   0.00000   0.00000   0.00000
  57       13D+1        0.00000   0.00000   0.00000   0.00000   0.00000
  58       13D-1        0.00000   0.00000   0.00000   0.00000   0.00000
  59       13D+2        0.00000   0.00000   0.00000   0.00000   0.00000
  60       13D-2        0.00000   0.00000   0.00000   0.00000   0.00000
  61 3   H  1S         -0.00013   0.00092   0.00058   0.00000   0.00002
  62        2S         -0.00040   0.00348   0.00188   0.00000   0.00010
  63        3S         -0.00037  -0.00038   0.00202   0.00000   0.00049
  64 4   H  1S         -0.00013   0.00092   0.00014   0.00043   0.00002
  65        2S         -0.00040   0.00348   0.00047   0.00141   0.00010
  66        3S         -0.00037  -0.00038   0.00051   0.00152   0.00049
  67 5   H  1S         -0.00013   0.00092   0.00014   0.00043   0.00002
  68        2S         -0.00040   0.00348   0.00047   0.00141   0.00010
  69        3S         -0.00037  -0.00038   0.00051   0.00152   0.00049
                          56        57        58        59        60
  56       13D 0        0.01354
  57       13D+1        0.00000   0.00949
  58       13D-1        0.00000   0.00000   0.00949
  59       13D+2        0.00000   0.00000   0.00000   0.00930
  60       13D-2        0.00000   0.00000   0.00000   0.00000   0.00930
  61 3   H  1S          0.00088   0.00227   0.00000   0.00486   0.00000
  62        2S          0.00161   0.00475   0.00000   0.00917   0.00000
  63        3S          0.00030   0.00120   0.00000   0.00217   0.00000
  64 4   H  1S          0.00088   0.00057   0.00170   0.00121   0.00364
  65        2S          0.00161   0.00119   0.00357   0.00229   0.00688
  66        3S          0.00030   0.00030   0.00090   0.00054   0.00163
  67 5   H  1S          0.00088   0.00057   0.00170   0.00121   0.00364
  68        2S          0.00161   0.00119   0.00357   0.00229   0.00688
  69        3S          0.00030   0.00030   0.00090   0.00054   0.00163
                          61        62        63        64        65
  61 3   H  1S          0.07735
  62        2S          0.08386   0.18407
  63        3S          0.02893   0.09641   0.09129
  64 4   H  1S          0.00000  -0.00006  -0.00141   0.07735
  65        2S         -0.00006  -0.00110  -0.00682   0.08386   0.18407
  66        3S         -0.00141  -0.00682  -0.01255   0.02893   0.09641
  67 5   H  1S          0.00000  -0.00006  -0.00141   0.00000  -0.00006
  68        2S         -0.00006  -0.00110  -0.00682  -0.00006  -0.00110
  69        3S         -0.00141  -0.00682  -0.01255  -0.00141  -0.00682
                          66        67        68        69
  66        3S          0.09129
  67 5   H  1S         -0.00141   0.07735
  68        2S         -0.00682   0.08386   0.18407
  69        3S         -0.01255   0.02893   0.09641   0.09129
     Gross orbital populations:
                           1
   1 1   Cl 1S          0.77725
   2        2S          1.18777
   3        3S          0.89147
   4        4S          1.09226
   5        5S          1.01414
   6        6S          1.02650
   7        7PX         2.48229
   8        7PY         2.48229
   9        7PZ         2.46622
  10        8PX        -0.51052
  11        8PY        -0.51052
  12        8PZ        -0.49985
  13        9PX         0.38461
  14        9PY         0.38461
  15        9PZ         0.31893
  16       10PX         1.05179
  17       10PY         1.05179
  18       10PZ         0.88292
  19       11PX         0.56292
  20       11PY         0.56292
  21       11PZ         0.27768
  22       12S         -0.08819
  23       12PX        -0.03805
  24       12PY        -0.03805
  25       12PZ        -0.03597
  26       13D 0        0.01081
  27       13D+1        0.00259
  28       13D-1        0.00259
  29       13D+2        0.00002
  30       13D-2        0.00002
  31 2   Si 1S          0.78735
  32        2S          1.18252
  33        3S          0.94594
  34        4S          1.03815
  35        5S          0.87906
  36        6S          0.49060
  37        7PX         0.66136
  38        7PY         0.66136
  39        7PZ         0.65533
  40        8PX         1.29566
  41        8PY         1.29566
  42        8PZ         1.29823
  43        9PX         0.23753
  44        9PY         0.23753
  45        9PZ         0.18698
  46       10PX         0.54668
  47       10PY         0.54668
  48       10PZ         0.35933
  49       11PX         0.02437
  50       11PY         0.02437
  51       11PZ        -0.03323
  52       12S          0.08153
  53       12PX         0.01972
  54       12PY         0.01972
  55       12PZ         0.02572
  56       13D 0        0.05057
  57       13D+1        0.03471
  58       13D-1        0.03471
  59       13D+2        0.03360
  60       13D-2        0.03360
  61 3   H  1S          0.25760
  62        2S          0.54431
  63        3S          0.24856
  64 4   H  1S          0.25760
  65        2S          0.54431
  66        3S          0.24856
  67 5   H  1S          0.25760
  68        2S          0.54431
  69        3S          0.24856
          Condensed to atoms (all electrons):
              1          2          3          4          5
  1  Cl  17.057039   0.240589  -0.034799  -0.034799  -0.034799
  2  Si   0.240589  12.290886   0.374619   0.374619   0.374619
  3  H   -0.034799   0.374619   0.771135  -0.030238  -0.030238
  4  H   -0.034799   0.374619  -0.030238   0.771135  -0.030238
  5  H   -0.034799   0.374619  -0.030238  -0.030238   0.771135
 Total atomic charges:
              1
  1  Cl  -0.193231
  2  Si   0.344667
  3  H   -0.050479
  4  H   -0.050479
  5  H   -0.050479
 Sum of Mulliken charges=   0.00000
 Atomic charges with hydrogens summed into heavy atoms:
              1
  1  Cl  -0.193231
  2  Si   0.193231
  3  H    0.000000
  4  H    0.000000
  5  H    0.000000
 Sum of Mulliken charges=   0.00000
 Electronic spatial extent (au):  <R**2>=   227.6614
 Charge=     0.0000 electrons
 Dipole moment (Debye):
    X=     0.0000    Y=     0.0000    Z=     1.8273  Tot=     1.8273
 Quadrupole moment (Debye-Ang):
   XX=   -28.2662   YY=   -28.2662   ZZ=   -27.7635
   XY=     0.0000   XZ=     0.0000   YZ=     0.0000
 Octapole moment (Debye-Ang**2):
  XXX=    -0.9033  YYY=     0.0000  ZZZ=    -4.8690  XYY=     0.9033
  XXY=     0.0000  XXZ=    -2.5666  XZZ=     0.0000  YZZ=     0.0000
  YYZ=    -2.5666  XYZ=     0.0000
 Hexadecapole moment (Debye-Ang**3):
 XXXX=   -56.2871 YYYY=   -56.2871 ZZZZ=  -224.4119 XXXY=     0.0000
 XXXZ=    -1.0761 YYYX=     0.0000 YYYZ=     0.0000 ZZZX=     0.0000
 ZZZY=     0.0000 XXYY=   -18.7624 XXZZ=   -51.2102 YYZZ=   -51.2102
 XXYZ=     0.0000 YYXZ=     1.0761 ZZXY=     0.0000
 N-N= 8.549978505749D+01 E-N=-1.958487842447D+03  KE= 7.499497247333D+02
 Leave Link  601 at Sun Aug 12 17:13:48 2007, MaxMem=    6291456 cpu:       0.0
 (Enter c:\g98w\l701.exe)
 Compute integral first derivatives.
 ... and contract with generalized density number  0.
 Leave Link  701 at Sun Aug 12 17:13:49 2007, MaxMem=    6291456 cpu:       1.0
 (Enter c:\g98w\l702.exe)
 L702 exits ... SP integral derivatives will be done elsewhere.
 Leave Link  702 at Sun Aug 12 17:13:49 2007, MaxMem=    6291456 cpu:       0.0
 (Enter c:\g98w\l703.exe)
 Compute integral first derivatives.
 Integral derivatives from FoFDir, PRISM(SPDF).
 Petite list used in FoFDir.
 MinBra= 0 MaxBra= 2 Meth= 1.
 IRaf=       0 NMat=   1 IRICut=       1 DoRegI=T DoRafI=F ISym2E= 1 JSym2E=1.
 Leave Link  703 at Sun Aug 12 17:13:53 2007, MaxMem=    6291456 cpu:       4.0
 (Enter c:\g98w\l716.exe)
 Dipole        = 5.34483527D-16 3.08274919D-17 7.18904443D-01
 ***** Axes restored to original set *****
 -------------------------------------------------------------------
 Center     Atomic                   Forces (Hartrees/Bohr)
 Number     Number              X              Y              Z
 -------------------------------------------------------------------
    1         17           0.000000000    0.000000000   -0.000066189
    2         14           0.000000000    0.000000000   -0.000128521
    3          1          -0.000004716   -0.000049504    0.000064903
    4          1          -0.000040514    0.000028836    0.000064903
    5          1           0.000045230    0.000020668    0.000064903
 -------------------------------------------------------------------
 Cartesian Forces:  Max     0.000128521 RMS     0.000052252
 Leave Link  716 at Sun Aug 12 17:13:53 2007, MaxMem=    6291456 cpu:       0.0
 (Enter c:\g98w\l103.exe)

 GradGradGradGradGradGradGradGradGradGradGradGradGradGradGradGradGradGrad
 Berny optimization.
 Internal  Forces:  Max     0.000067392 RMS     0.000066292
 Search for a local minimum.
 Step number   1 out of a maximum of  20
 All quantities printed in internal units (Hartrees-Bohrs-Radians)
 Second derivative matrix not updated -- first step.
 The second derivative matrix:
                          R1        R2        R3        R4        A1
           R1           0.26763
           R2           0.00000   0.17861
           R3           0.00000   0.00000   0.17861
           R4           0.00000   0.00000   0.00000   0.17861
           A1           0.00000   0.00000   0.00000   0.00000   0.16000
           A2           0.00000   0.00000   0.00000   0.00000   0.00000
           A3           0.00000   0.00000   0.00000   0.00000   0.00000
           A4           0.00000   0.00000   0.00000   0.00000   0.00000
           A5           0.00000   0.00000   0.00000   0.00000   0.00000
           A6           0.00000   0.00000   0.00000   0.00000   0.00000
                          A2        A3        A4        A5        A6
           A2           0.16000
           A3           0.00000   0.16000
           A4           0.00000   0.00000   0.16000
           A5           0.00000   0.00000   0.00000   0.16000
           A6           0.00000   0.00000   0.00000   0.00000   0.16000
     Eigenvalues ---    0.16000   0.16000   0.16000   0.16000   0.16000
     Eigenvalues ---    0.17861   0.17861   0.17861   0.267631000.00000
 RFO step:  Lambda=-2.54780464D-07.
 Linear search not attempted -- first point.
 Iteration  1 RMS(Cart)=  0.00047306 RMS(Int)=  0.00000016
 Iteration  2 RMS(Cart)=  0.00000013 RMS(Int)=  0.00000008
 Variable       Old X    -DE/DX   Delta X   Delta X   Delta X     New X
                                 (Linear)    (Quad)   (Total)
    R1        3.93225  -0.00007   0.00000  -0.00025  -0.00025   3.93200
    R2        2.79326  -0.00007   0.00000  -0.00038  -0.00038   2.79289
    R3        2.79326  -0.00007   0.00000  -0.00038  -0.00038   2.79289
    R4        2.79326  -0.00007   0.00000  -0.00038  -0.00038   2.79289
    A1        1.89046  -0.00007   0.00000  -0.00042  -0.00042   1.89004
    A2        1.89046  -0.00007   0.00000  -0.00042  -0.00042   1.89004
    A3        1.89046  -0.00007   0.00000  -0.00042  -0.00042   1.89004
    A4        1.93036   0.00006   0.00000   0.00040   0.00040   1.93077
    A5        1.93036   0.00006   0.00000   0.00040   0.00040   1.93077
    A6        1.93036   0.00006   0.00000   0.00040   0.00040   1.93077
         Item               Value     Threshold  Converged?
 Maximum Force            0.000067     0.000450     YES
 RMS     Force            0.000066     0.000300     YES
 Maximum Displacement     0.000937     0.001800     YES
 RMS     Displacement     0.000473     0.001200     YES
 Predicted change in Energy=-1.273898D-07
 Optimization completed.
    -- Stationary point found.
                         ----------------------------
                         !   Optimized Parameters   !
                         ! (Angstroms and Degrees)  !
 ------------------------                            -------------------------
 ! Name  Definition              Value          Derivative Info.             !
 -----------------------------------------------------------------------------
 ! R1    R(1,2)                  2.0809         -DE/DX =   -0.0001           !
 ! R2    R(2,3)                  1.4781         -DE/DX =   -0.0001           !
 ! R3    R(2,4)                  1.4781         -DE/DX =   -0.0001           !
 ! R4    R(2,5)                  1.4781         -DE/DX =   -0.0001           !
 ! A1    A(1,2,3)              108.3156         -DE/DX =   -0.0001           !
 ! A2    A(1,2,4)              108.3156         -DE/DX =   -0.0001           !
 ! A3    A(1,2,5)              108.3156         -DE/DX =   -0.0001           !
 ! A4    A(3,2,4)              110.6017         -DE/DX =    0.0001           !
 ! A5    A(3,2,5)              110.6017         -DE/DX =    0.0001           !
 ! A6    A(4,2,5)              110.6017         -DE/DX =    0.0001           !
 -----------------------------------------------------------------------------
 GradGradGradGradGradGradGradGradGradGradGradGradGradGradGradGradGradGrad

 Leave Link  103 at Sun Aug 12 17:13:54 2007, MaxMem=    6291456 cpu:       1.0
 (Enter c:\g98w\l9999.exe)
 1|1|UNPC-UNK|FOpt|RB3LYP|6-311+G(d)|Cl1H3Si1|PCUSER|12-Aug-2007|0||#P 
 B3LYP/6-311+G* GFPRINT OPT POP=FULL||ClSiH3||0,1|Cl,0.,0.,-1.081414147
 1|Si,0.,0.,0.9994428529|H,1.4032489706,0.,1.4639468529|H,-0.7016244853
 ,1.2152492564,1.4639468529|H,-0.7016244853,-1.2152492564,1.4639468529|
 |Version=x86-Win32-G98RevA.7|State=1-A|HF=-751.5842867|RMSD=5.972e-009
 |RMSF=5.225e-005|Dipole=0.,0.,-0.7189044|PG=C03 [C3(Cl1Si1),X(H3)]||@


 The mind is not a vessel to be filled but a fire to be kindled.
                                  -- Plutarch
 Job cpu time:  0 days  0 hours  0 minutes 26.0 seconds.
 File lengths (MBytes):  RWF=    6 Int=    0 D2E=    0 Chk=    3 Scr=    1
 Normal termination of Gaussian 98.