
 Distributed Data Interface kickoff program.
 Initiating 1 compute processes on 1 nodes to run the following command:
 C:\WinGAMESS/gamess.07.exe GAKB3LYPBromoform631GAll 

          ******************************************************
          *         GAMESS VERSION = 24 MAR 2007 (R1)          *
          *             FROM IOWA STATE UNIVERSITY             *
          * M.W.SCHMIDT, K.K.BALDRIDGE, J.A.BOATZ, S.T.ELBERT, *
          *   M.S.GORDON, J.H.JENSEN, S.KOSEKI, N.MATSUNAGA,   *
          *          K.A.NGUYEN, S.J.SU, T.L.WINDUS,           *
          *       TOGETHER WITH M.DUPUIS, J.A.MONTGOMERY       *
          *         J.COMPUT.CHEM.  14, 1347-1363(1993)        *
          ******************* WINDOWS VERSION ******************

     SINCE 1993, STUDENTS AND POSTDOCS WORKING AT IOWA STATE UNIVERSITY
     AND ALSO IN THEIR VARIOUS JOBS AFTER LEAVING ISU HAVE MADE IMPORTANT
     CONTRIBUTIONS TO THE CODE:
     IVANA ADAMOVIC, CHRISTINE AIKENS, YURI ALEXEEV, POOJA ARORA, ROB BELL,
     PRADIPTA BANDYOPADHYAY, JONATHAN BENTZ, BRETT BODE, GALINA CHABAN,
     WEI CHEN, CHEOL HO CHOI, PAUL DAY, TIM DUDLEY, DMITRI FEDOROV,
     GRAHAM FLETCHER, MARK FREITAG, KURT GLAESEMANN, GRANT MERRILL,
     TAKESHI NAGATA, HEATHER NETZLOFF, BOSILJKA NJEGIC, RYAN OLSON,
     MIKE PAK, JIM SHOEMAKER, LYUDMILA SLIPCHENKO, JIE SONG,
     TETSUYA TAKETSUGU, SIMON WEBB.

     ADDITIONAL CODE HAS BEEN PROVIDED BY COLLABORATORS IN OTHER GROUPS:
     IOWA STATE UNIVERSITY: JOE IVANIC, KLAUS RUEDENBERG
     UNIVERSITY OF TOKYO: KIMIHIKO HIRAO, HARUYUKI NAKANO, TAKAHITO
          NAKAJIMA, TAKAO TSUNEDA, MUNEAKI KAMIYA, SUSUMU YANAGISAWA,
          KIYOSHI YAGI, MAHITO CHIBA, SEIKEN TOKURA, NAOAKI KAWAKAMI
     UNIVERSITY OF SOUTHERN DENMARK: FRANK JENSEN
     UNIVERSITY OF IOWA: VISVALDAS KAIRYS, HUI LI
     NATIONAL INST. OF STANDARDS AND TECHNOLOGY: WALT STEVENS, DAVID GARMER
     UNIVERSITY OF PISA: BENEDETTA MENNUCCI, JACOPO TOMASI
     UNIVERSITY OF MEMPHIS: HENRY KURTZ, PRAKASHAN KORAMBATH
     UNIVERSITY OF ALBERTA: MARIUSZ KLOBUKOWSKI
     UNIVERSITY OF NEW ENGLAND: MARK SPACKMAN
     MIE UNIVERSITY: HIROAKI UMEDA
     MICHIGAN STATE UNIVERSITY:
          KAROL KOWALSKI, MARTA WLOCH, PIOTR PIECUCH
     UNIVERSITY OF SILESIA: MONIKA MUSIAL, STANISLAW KUCHARSKI
     FACULTES UNIVERSITAIRES NOTRE-DAME DE LA PAIX:
          OLIVIER QUINET, BENOIT CHAMPAGNE
     UNIVERSITY OF CALIFORNIA - SANTA BARBARA: BERNARD KIRTMAN
     INSTITUTE FOR MOLECULAR SCIENCE: KAZUYA ISHIMURA AND SHIGERU NAGASE
     UNIVERSITY OF NOTRE DAME: DAN CHIPMAN
     KYUSHU UNIVERSITY:
          FENG LONG GU, JACEK KORCHOWIEC, MARCIN MAKOWSKI, AND YURIKO AOKI
     PENNSYLVANIA STATE UNIVERSITY:
          TZVETELIN IORDANOV, CHET SWALINA, SHARON HAMMES-SCHIFFER

 EXECUTION OF GAMESS BEGUN Sun Jun 17 10:25:39 2007

            ECHO OF THE FIRST FEW INPUT CARDS -
 INPUT CARD> $CONTRL SCFTYP=RHF DFTTYP=B3LYP RUNTYP=OPTIMIZE MAXIT=100 COORD=ZMT            
 INPUT CARD>EXETYP=RUN $END                                                                 
 INPUT CARD> $STATPT NSTEP=200 $END                                                         
 INPUT CARD> $SYSTEM MWORDS=100 TIMLIM=6000000 $END                                         
 INPUT CARD> $BASIS GBASIS=N31 NGAUSS=6 $END                                                
 INPUT CARD> $DATA                                                                          
 INPUT CARD>First trial of bromoform optimisation 6-31G for all                             
 INPUT CARD>Cnv 3                                                                           
 INPUT CARD>                                                                                
 INPUT CARD>H                                                                               
 INPUT CARD>C,1,B1                                                                          
 INPUT CARD>Br,2,B2,1,A1                                                                    
 INPUT CARD>Br,2,B2,1,A1,3,120.0                                                            
 INPUT CARD>Br,2,B2,1,A1,3,-120.0                                                           
 INPUT CARD>                                                                                
 INPUT CARD>B1=1.07                                                                         
 INPUT CARD>B2=1.91                                                                         
 INPUT CARD>A1=109.47                                                                       
 INPUT CARD> $END                                                                           
 INPUT CARD>! $ZMAT  IZMAT(1)= 1,1,2 1,2,3 1,3,4 2,1,2,3 2,2,3,4 4,1,2,3,4 $END             
 INPUT CARD>! $FORCE  NVIB=2 PURIFY=.TRUE. PRTIFC=.TRUE. VIBANL=.TRUE. DECOMP=.TRUE.  $END  
  100000000 WORDS OF MEMORY AVAILABLE

     BASIS OPTIONS
     -------------
     GBASIS=N31          IGAUSS=       6      POLAR=NONE    
     NDFUNC=       0     NFFUNC=       0     DIFFSP=       F
     NPFUNC=       0      DIFFS=       F

     GRID-BASED DFT OPTIONS
     ----------------------
     DFTTYP=B3LYP        QOP   =   0.000     PFTYP =NONE    
     NRAD  =      96     NTHE  =      12     NPHI  =      24
     NRAD0 =      24     NTHE0 =       8     NPHI0 =      16
      SWOFF=    5.00E-03 (PURE SCF -> DFT)
     SWITCH=    3.00E-04 (COARSE -> TIGHT GRID)
     THRESH=    0.00E+00 GTHRE=    1.00E+00


     RUN TITLE
     ---------
 First trial of bromoform optimisation 6-31G for all                             

 THE POINT GROUP OF THE MOLECULE IS CNV     
 THE ORDER OF THE PRINCIPAL AXIS IS     3

 YOUR FULLY SUBSTITUTED Z-MATRIX IS
 H   
 C      1   1.0700000
 BR     2   1.9100000  1  109.4700
 BR     2   1.9100000  1  109.4700  3  120.0000  0
 BR     2   1.9100000  1  109.4700  3 -120.0000  0

 THE MOMENTS OF INERTIA ARE (AMU-ANGSTROM**2)
 IXX=   391.323   IYY=   391.323   IZZ=   767.750

 ATOM      ATOMIC                      COORDINATES (BOHR)
           CHARGE         X                   Y                   Z
 H           1.0     0.0000000000        0.0000000000       -3.1542449147
 C           6.0     0.0000000000        0.0000000000       -1.1322381078
 BR         35.0    -1.7014892791        2.9470658799        0.0708149406
 BR         35.0    -1.7014892791       -2.9470658799        0.0708149406
 BR         35.0     3.4029785581        0.0000000000        0.0708149406

          INTERNUCLEAR DISTANCES (ANGS.)
          ------------------------------

                1 H          2 C          3 BR         4 BR         5 BR    

   1 H       0.0000000    1.0700000 *  2.4810047 *  2.4810047 *  2.4810047 *
   2 C       1.0700000 *  0.0000000    1.9100000 *  1.9100000 *  1.9100000 *
   3 BR      2.4810047 *  1.9100000 *  0.0000000    3.1190404    3.1190404  
   4 BR      2.4810047 *  1.9100000 *  3.1190404    0.0000000    3.1190404  
   5 BR      2.4810047 *  1.9100000 *  3.1190404    3.1190404    0.0000000  

  * ... LESS THAN  3.000


     ATOMIC BASIS SET
     ----------------
 THE CONTRACTED PRIMITIVE FUNCTIONS HAVE BEEN UNNORMALIZED
 THE CONTRACTED BASIS FUNCTIONS ARE NOW NORMALIZED TO UNITY

  SHELL TYPE  PRIMITIVE        EXPONENT          CONTRACTION COEFFICIENT(S)

 H         

      1   S       1            18.7311370    0.033494604338
      1   S       2             2.8253944    0.234726953484
      1   S       3             0.6401217    0.813757326146

      2   S       4             0.1612778    1.000000000000

 C         

      3   S       5          3047.5248800    0.001834737132
      3   S       6           457.3695180    0.014037322813
      3   S       7           103.9486850    0.068842622264
      3   S       8            29.2101553    0.232184443216
      3   S       9             9.2866630    0.467941348435
      3   S      10             3.1639270    0.362311985337

      4   L      11             7.8682723   -0.119332419775    0.068999066591
      4   L      12             1.8812885   -0.160854151696    0.316423960957
      4   L      13             0.5442493    1.143456437840    0.744308290898

      5   L      14             0.1687145    1.000000000000    1.000000000000

 BR        

     20   S      15        113718.2000000    0.001717696020
     20   S      16         17074.4400000    0.013167440157
     20   S      17          3889.5760000    0.065045530775
     20   S      18          1097.0960000    0.226950502703
     20   S      19           352.0624000    0.476835705678
     20   S      20           120.7002000    0.358367704268

     21   L      21          2471.1380000    0.002243686934    0.003790181843
     21   L      22           589.3838000    0.029948529125    0.029959788758
     21   L      23           191.8738000    0.125600896330    0.131822794533
     21   L      24            72.9533900   -0.000983278571    0.343270785764
     21   L      25            30.0583900   -0.601314082428    0.464234480747
     21   L      26            12.5292700   -0.491398285640    0.207938691376

     22   L      27           109.6411000   -0.005975683203   -0.006907482641
     22   L      28            38.5894800    0.055421221885   -0.030414318419
     22   L      29            16.3781800    0.268120009121    0.046027247607
     22   L      30             7.2218360   -0.154360605251    0.365068881019
     22   L      31             3.2636970   -0.720630624515    0.494923174267
     22   L      32             1.4654990   -0.331643711282    0.209039389131

     23   L      33             2.1036510    0.302902925312   -0.028267138833
     23   L      34             0.7547050   -0.215265917988    0.350306485538
     23   L      35             0.3005140   -0.963394180505    0.718244570349

     24   L      36             0.1090710    1.000000000000    1.000000000000

     25   D      37            62.2551400    0.077042284602
     25   D      38            17.3128400    0.370738374024
     25   D      39             5.6079150    0.709762750271

     26   D      40             1.7464860    1.000000000000

 TOTAL NUMBER OF BASIS SET SHELLS             =   26
 NUMBER OF CARTESIAN GAUSSIAN BASIS FUNCTIONS =   98
 NUMBER OF ELECTRONS                          =  112
 CHARGE OF MOLECULE                           =    0
 SPIN MULTIPLICITY                            =    1
 NUMBER OF OCCUPIED ORBITALS (ALPHA)          =   56
 NUMBER OF OCCUPIED ORBITALS (BETA )          =   56
 TOTAL NUMBER OF ATOMS                        =    5
 THE NUCLEAR REPULSION ENERGY IS      823.4098341272

     $NEO OPTIONS
     ------------
     NUNIQN=       0     BASNUC=DZSNB        NEOSCF=NONE    
     NEOCI =NONE         NUMULT=       2     NUCST =       1
     NAUXNB=       0     VNUCEX=       F     NEOOPT=       F
     NTAUXB=       0     NEOHSS=       F     HSSINI=READH   
     HSSUPD=POWELLUP     DIRNUC=       F     SYMNUC=       F
     QMTOLN= 0.0E+00     USRDEX=       F
     POSNEO=       F     POSPRP=       F

     $CONTRL OPTIONS
     ---------------
 SCFTYP=RHF          RUNTYP=OPTIMIZE     EXETYP=RUN     
 MPLEVL=       0     CITYP =NONE         CCTYP =NONE         VBTYP =NONE    
 DFTTYP=B3LYP        TDDFT =NONE    
 MULT  =       1     ICHARG=       0     NZVAR =       0     COORD =ZMT     
 PP    =NONE         RELWFN=NONE         LOCAL =NONE         NUMGRD=       F
 ISPHER=      -1     NOSYM =       0     MAXIT =     100     UNITS =ANGS    
 PLTORB=       F     MOLPLT=       F     AIMPAC=       F     FRIEND=        
 NPRINT=       7     IREST =       0     GEOM  =INPUT   
 NORMF =       0     NORMP =       0     ITOL  =      20     ICUT  =       9
 INTTYP=BEST         GRDTYP=BEST         QMTTOL= 1.0E-06

     $SYSTEM OPTIONS
     ---------------
  REPLICATED MEMORY=   100000000 WORDS (ON EVERY NODE).
 DISTRIBUTED MEMDDI=           0 MILLION WORDS IN AGGREGATE,
 MEMDDI DISTRIBUTED OVER   1 PROCESSORS IS           0 WORDS/PROCESSOR.
 TOTAL MEMORY REQUESTED ON EACH PROCESSOR=   100000000 WORDS.
 TIMLIM=     6000000.00 MINUTES, OR  4166.67 DAYS.
 PARALL= F  BALTYP=  NXTVAL  KDIAG=    0  COREFL= F

          ----------------
          PROPERTIES INPUT
          ----------------

     MOMENTS            FIELD           POTENTIAL          DENSITY
 IEMOM =       1   IEFLD =       0   IEPOT =       0   IEDEN =       0
 WHERE =COMASS     WHERE =NUCLEI     WHERE =NUCLEI     WHERE =NUCLEI  
 OUTPUT=BOTH       OUTPUT=BOTH       OUTPUT=BOTH       OUTPUT=BOTH    
 IEMINT=       0   IEFINT=       0                     IEDINT=       0
                                                       MORB  =       0
          EXTRAPOLATION IN EFFECT
          DIIS IN EFFECT
 ORBITAL PRINTING OPTION: NPREO=   1  98   2   1

     -------------------------------
     INTEGRAL TRANSFORMATION OPTIONS
     -------------------------------
     NWORD  =         0     CUTOFF = 1.0E-09
     MPTRAN =         0     DIRTRF =       F
     AOINTS =DUP     

          ----------------------
          INTEGRAL INPUT OPTIONS
          ----------------------
 NOPK  =       1 NORDER=       0 SCHWRZ=       F

   --- ENCODED Z MATRIX ---
 COORD  TYPE   I   J   K   L   M   N
    1      1    2   1
    2      1    5   2
    3      2    5   2   1
    4      1    3   2
    5      2    3   2   1
    6      3    3   2   1   5
    7      1    4   2
    8      2    4   2   1
    9      3    4   2   1   5

 THE DETERMINANT OF THE G MATRIX IS 10**(   -12)

 THE DETERMINANT OF THE G MATRIX IS 10**(   -12)
 * * * WARNING * * *
 YOUR B MATRIX HAS A SMALL DETERMINANT.
 THIS SUGGESTS YOU MAY HAVE BADLY CHOSEN COORDINATES.

     ------------------------------------------
     THE POINT GROUP IS CNV, NAXIS= 3, ORDER= 6
     ------------------------------------------

     DIMENSIONS OF THE SYMMETRY SUBSPACES ARE
 A1  =   28     A2  =    8     E   =   31

 ..... DONE SETTING UP THE RUN .....
 STEP CPU TIME =     0.02 TOTAL CPU TIME =        0.0 (    0.0 MIN)
 TOTAL WALL CLOCK TIME=        0.1 SECONDS, CPU UTILIZATION IS  23.81%


          -----------------------------
          STATIONARY POINT LOCATION RUN
          -----------------------------

 OBTAINING INITIAL HESSIAN, HESS=GUESS   
 CARTESIAN COORDINATE OPTIMIZATION USING BADGER'S RULE FORCE CONSTANT GUESS

          PARAMETERS CONTROLLING GEOMETRY SEARCH ARE
          METHOD =QA                  UPHESS =BFGS    
          NNEG   =         0          NFRZ   =         0
          NSTEP  =       200          IFOLOW =         1
          HESS   =GUESS               RESTAR =         F
          IHREP  =         0          HSSEND =         F
          NPRT   =         0          NPUN   =         0
          OPTTOL = 1.000E-04          RMIN   = 1.500E-03
          RMAX   = 1.000E-01          RLIM   = 7.000E-02
          DXMAX  = 3.000E-01          PURIFY =         F
          MOVIE  =         F          TRUPD  =         T
          TRMAX  = 5.000E-01          TRMIN  = 5.000E-02
          ITBMAT =         5          STPT   =         F
          STSTEP = 1.000E-02          PROJCT=          T

 BEGINNING GEOMETRY SEARCH POINT NSERCH=   0 ...

 COORDINATES OF SYMMETRY UNIQUE ATOMS (ANGS)
   ATOM   CHARGE       X              Y              Z
 ------------------------------------------------------------
 H           1.0   0.0000000000   0.0000000000  -1.6691546474
 C           6.0   0.0000000000   0.0000000000  -0.5991546474
 BR         35.0   1.8007788326   0.0000000000   0.0374736555
 COORDINATES OF ALL ATOMS ARE (ANGS)
   ATOM   CHARGE       X              Y              Z
 ------------------------------------------------------------
 H           1.0   0.0000000000   0.0000000000  -1.6691546474
 C           6.0   0.0000000000   0.0000000000  -0.5991546474
 BR         35.0  -0.9003894163   1.5595202156   0.0374736555
 BR         35.0  -0.9003894163  -1.5595202156   0.0374736555
 BR         35.0   1.8007788326   0.0000000000   0.0374736555

 THE CURRENT FULLY SUBSTITUTED Z-MATRIX IS
 H   
 C      1   1.0700000
 BR     2   1.9100000  1   109.4700000
 BR     2   1.9100000  1   109.4700000  3   120.0000000  0
 BR     2   1.9100000  1   109.4700000  3  -120.0000000  0

          ********************
          1 ELECTRON INTEGRALS
          ********************
 ...... END OF ONE-ELECTRON INTEGRALS ......
 STEP CPU TIME =     0.02 TOTAL CPU TIME =        0.0 (    0.0 MIN)
 TOTAL WALL CLOCK TIME=        0.1 SECONDS, CPU UTILIZATION IS  32.98%

          -------------
          GUESS OPTIONS
          -------------
          GUESS =HUCKEL            NORB  =       0          NORDER=       0
          MIX   =       F          PRTMO =       F          PUNMO =       F
          TOLZ  = 1.0E-08          TOLE  = 1.0E-05
          SYMDEN=       F          PURIFY=       F

 INITIAL GUESS ORBITALS GENERATED BY HUCKEL   ROUTINE.
 HUCKEL GUESS REQUIRES     90517 WORDS.

 SYMMETRIES FOR INITIAL GUESS ORBITALS FOLLOW.   BOTH SET(S).
    56 ORBITALS ARE OCCUPIED (   43 CORE ORBITALS).
    44=?A1     45=?E      46=?E      47=?A1     48=?A1     49=?E      50=?E  
    51=?E      52=?E      53=?A1     54=?E      55=?E      56=?A2     57=?E  
    58=?E      59=?A1     60=?A1     61=A1      62=?A1     63=?A1     64=?A1 
    65=?A1     66=?A1 
 ...... END OF INITIAL ORBITAL SELECTION ......
 STEP CPU TIME =     0.22 TOTAL CPU TIME =        0.2 (    0.0 MIN)
 TOTAL WALL CLOCK TIME=        0.3 SECONDS, CPU UTILIZATION IS  76.22%

                    ----------------------
                    AO INTEGRAL TECHNOLOGY
                    ----------------------
     S,P,L SHELL ROTATED AXIS INTEGRALS, REPROGRAMMED BY
        KAZUYA ISHIMURA (IMS) AND JOSE SIERRA (SYNSTAR).
     S,P,D,L SHELL ROTATED AXIS INTEGRALS PROGRAMMED BY
        KAZUYA ISHIMURA (INSTITUTE FOR MOLECULAR SCIENCE).
     S,P,D,F,G SHELL TO TOTAL QUARTET ANGULAR MOMENTUM SUM 5,
        ERIC PROGRAM BY GRAHAM FLETCHER (ELORET AND NASA ADVANCED
        SUPERCOMPUTING DIVISION, AMES RESEARCH CENTER).
     S,P,D,F,G,L SHELL GENERAL RYS QUADRATURE PROGRAMMED BY
        MICHEL DUPUIS (PACIFIC NORTHWEST NATIONAL LABORATORY).

          --------------------
          2 ELECTRON INTEGRALS
          --------------------

 THE -PK- OPTION IS OFF, THE INTEGRALS ARE NOT IN SUPERMATRIX FORM.
 STORING   15000 INTEGRALS/RECORD ON DISK, USING 12 BYTES/INTEGRAL.
 TWO ELECTRON INTEGRAL EVALUATION REQUIRES   90747 WORDS OF MEMORY.
 II,JST,KST,LST =  1  1  1  1 NREC =         1 INTLOC =    1
 II,JST,KST,LST =  2  1  1  1 NREC =         1 INTLOC =    2
 II,JST,KST,LST =  3  1  1  1 NREC =         1 INTLOC =    7
 II,JST,KST,LST =  4  1  1  1 NREC =         1 INTLOC =   22
 II,JST,KST,LST =  5  1  1  1 NREC =         1 INTLOC =  169
 II,JST,KST,LST =  6  1  1  1 NREC =         1 INTLOC =  678
 II,JST,KST,LST =  7  1  1  1 NREC =         1 INTLOC =  678
 II,JST,KST,LST =  8  1  1  1 NREC =         1 INTLOC =  678
 II,JST,KST,LST =  9  1  1  1 NREC =         1 INTLOC =  678
 II,JST,KST,LST = 10  1  1  1 NREC =         1 INTLOC =  678
 II,JST,KST,LST = 11  1  1  1 NREC =         1 INTLOC =  678
 II,JST,KST,LST = 12  1  1  1 NREC =         1 INTLOC =  678
 II,JST,KST,LST = 13  1  1  1 NREC =         1 INTLOC =  678
 II,JST,KST,LST = 14  1  1  1 NREC =         1 INTLOC =  678
 II,JST,KST,LST = 15  1  1  1 NREC =         1 INTLOC =  678
 II,JST,KST,LST = 16  1  1  1 NREC =         1 INTLOC =  678
 II,JST,KST,LST = 17  1  1  1 NREC =         1 INTLOC =  678
 II,JST,KST,LST = 18  1  1  1 NREC =         1 INTLOC =  678
 II,JST,KST,LST = 19  1  1  1 NREC =         1 INTLOC =  678
 II,JST,KST,LST = 20  1  1  1 NREC =         1 INTLOC =  678
 II,JST,KST,LST = 21  1  1  1 NREC =         1 INTLOC = 1217
 II,JST,KST,LST = 22  1  1  1 NREC =         1 INTLOC = 6100
 II,JST,KST,LST = 23  1  1  1 NREC =         2 INTLOC = 4380
 II,JST,KST,LST = 24  1  1  1 NREC =         5 INTLOC =10926
 II,JST,KST,LST = 25  1  1  1 NREC =        13 INTLOC = 8785
 II,JST,KST,LST = 26  1  1  1 NREC =        26 INTLOC =14460
 TOTAL NUMBER OF NONZERO TWO-ELECTRON INTEGRALS =              720876
         49 INTEGRAL RECORDS WERE STORED ON DISK FILE  8.
  ...... END OF TWO-ELECTRON INTEGRALS .....
 STEP CPU TIME =     0.59 TOTAL CPU TIME =        0.8 (    0.0 MIN)
 TOTAL WALL CLOCK TIME=        1.1 SECONDS, CPU UTILIZATION IS  73.97%

          --------------------------
             R-B3LYP SCF CALCULATION
          --------------------------

     NUCLEAR ENERGY =       823.4098341272
     MAXIT =  100     NPUNCH=    2
     EXTRAP=T  DAMP=F  SHIFT=F  RSTRCT=F  DIIS=T  DEM=F  SOSCF=F
           DENSITY MATRIX CONV=  1.00E-05
     DFT GRID SWITCH THRESHOLD=  3.00E-04
      DFT SWITCH OFF THRESHOLD=  5.00E-03
     MEMORY REQUIRED FOR RHF STEP=    294960 WORDS.

 DFT CODE IS SWITCHING FROM 96 12 24 TO THE COARSER GRID 24  8 16

     EXCHANGE FUNCTIONAL   =B88&HFX   
     CORRELATION FUNCTIONAL=LYP88&VWN5
     DFT THRESHOLD         =.651E-07
     GRID CHANGE THRESHOLD =.300E-03
 DFT IS SWITCHED OFF, PERFORMING PURE SCF UNTIL SWOFF THRESHOLD IS REACHED.

 ITER EX DEM     TOTAL ENERGY        E CHANGE  DENSITY CHANGE    DIIS ERROR
   1  0  0    -7754.0141926772 -7754.0141926772   0.490083792   1.910598472
          * * *   INITIATING DIIS PROCEDURE   * * *
   2  1  0    -7754.5002642087    -0.4860715314   0.139764417   0.097006253
   3  2  0    -7754.5297402527    -0.0294760441   0.054797714   0.048816477
   4  3  0    -7754.5440735057    -0.0143332530   0.013570151   0.006152217
   5  4  0    -7754.5445732073    -0.0004997016   0.004642000   0.003760095
 CONVERGED TO SWOFF, SO DFT CALCULATION IS NOW SWITCHED ON.
          * * *   INITIATING DIIS PROCEDURE   * * *
   6  5  0    -7759.6446112417    -5.1000380343   0.096817422   0.374495865
   7  6  0    -7759.6628345397    -0.0182232980   0.076846851   0.025156645
   8  7  0    -7759.6544736787     0.0083608610   0.054511843   0.046427385
   9  8  0    -7759.6679643870    -0.0134907083   0.008520017   0.007167702
  10  9  0    -7759.6682584737    -0.0002940867   0.000469502   0.000151687
  11 10  0    -7759.6682586507    -0.0000001770   0.000137568   0.000083468
 DFT CODE IS SWITCHING BACK TO THE FINER GRID
          * * *   INITIATING DIIS PROCEDURE   * * *
  12 11  0    -7759.6588863806     0.0093722701   0.009505152   0.006915431
  13 12  0    -7759.6588857312     0.0000006494   0.004780448   0.002096378
  14 13  0    -7759.6588755324     0.0000101988   0.002597541   0.002464026
  15 14  0    -7759.6589117381    -0.0000362056   0.000085440   0.000239424
  16 15  0    -7759.6589118013    -0.0000000633   0.000021936   0.000009161
  17 16  0    -7759.6589118022    -0.0000000008   0.000006259   0.000002293
  18 17  0    -7759.6589118023    -0.0000000001   0.000000889   0.000000338

          -----------------
          DENSITY CONVERGED
          -----------------
     TIME TO FORM FOCK OPERATORS=      24.6 SECONDS (       1.4 SEC/ITER)
     TIME TO SOLVE SCF EQUATIONS=       0.5 SECONDS (       0.0 SEC/ITER)

 FINAL R-B3LYP ENERGY IS    -7759.6589118023 AFTER  18 ITERATIONS
 DFT EXCHANGE + CORRELATION ENERGY =      -224.6342490408
 TOTAL ELECTRON NUMBER             =       112.0000922210

          ------------
          EIGENVECTORS
          ------------

                      1          2          3          4          5
                 -482.8296  -482.8296  -482.8296   -62.4857   -62.4857
                     A1         E          E          E          E   
    1  H  1  S    0.000004   0.000000   0.000000   0.000000   0.000000
    2  H  1  S    0.000019   0.000000   0.000000   0.000000   0.000000
    3  C  2  S    0.000004   0.000000   0.000000   0.000000   0.000000
    4  C  2  S    0.000012   0.000000   0.000000   0.000000   0.000000
    5  C  2  X    0.000000  -0.000012   0.000000  -0.000005   0.000000
    6  C  2  Y    0.000000   0.000000   0.000012   0.000000   0.000005
    7  C  2  Z   -0.000003   0.000000   0.000000   0.000000   0.000000
    8  C  2  S   -0.000047   0.000000   0.000000   0.000000   0.000000
    9  C  2  X    0.000000   0.000003   0.000000   0.000004   0.000000
   10  C  2  Y    0.000000   0.000000  -0.000003   0.000000  -0.000004
   11  C  2  Z   -0.000003   0.000000   0.000000   0.000000   0.000000
   12  BR 3  S    0.574442  -0.406192  -0.703545  -0.127334  -0.220550
   13  BR 3  S   -0.011692   0.008267   0.014319  -0.419549  -0.726680
   14  BR 3  X    0.000002  -0.000001  -0.000002   0.000235   0.000408
   15  BR 3  Y   -0.000003   0.000002   0.000004  -0.000408  -0.000706
   16  BR 3  Z   -0.000001   0.000001   0.000002  -0.000199  -0.000346
   17  BR 3  S   -0.017448   0.012331   0.021358   0.009779   0.016937
   18  BR 3  X   -0.000002   0.000001   0.000001   0.000013   0.000022
   19  BR 3  Y    0.000003  -0.000001  -0.000002  -0.000022  -0.000039
   20  BR 3  Z    0.000001   0.000000  -0.000001  -0.000011  -0.000018
   21  BR 3  S   -0.000261   0.000185   0.000321   0.000104   0.000180
   22  BR 3  X    0.000005  -0.000001  -0.000002  -0.000007  -0.000008
   23  BR 3  Y   -0.000009   0.000002   0.000004   0.000008   0.000016
   24  BR 3  Z   -0.000003   0.000000   0.000000   0.000003   0.000005
   25  BR 3  S   -0.000062   0.000062   0.000107   0.000045   0.000078
   26  BR 3  X    0.000001   0.000010   0.000003   0.000015   0.000008
   27  BR 3  Y   -0.000002  -0.000003  -0.000014  -0.000008  -0.000024
   28  BR 3  Z    0.000002   0.000000   0.000000  -0.000002  -0.000003
   29  BR 3 XX   -0.008433   0.005960   0.010323   0.008150   0.014117
   30  BR 3 YY   -0.008433   0.005960   0.010323   0.008171   0.014151
   31  BR 3 ZZ   -0.008433   0.005960   0.010323   0.008146   0.014109
   32  BR 3 XY    0.000000   0.000000   0.000000  -0.000020  -0.000034
   33  BR 3 XZ    0.000000   0.000000   0.000000  -0.000008  -0.000014
   34  BR 3 YZ    0.000000   0.000000   0.000000   0.000014   0.000025
   35  BR 3 XX   -0.001565   0.001105   0.001913   0.000785   0.001358
   36  BR 3 YY   -0.001564   0.001104   0.001914   0.000779   0.001350
   37  BR 3 ZZ   -0.001565   0.001105   0.001913   0.000785   0.001360
   38  BR 3 XY   -0.000001   0.000000   0.000000   0.000004   0.000008
   39  BR 3 XZ    0.000000   0.000000   0.000000   0.000002   0.000003
   40  BR 3 YZ    0.000000   0.000000   0.000000  -0.000003  -0.000006
   41  BR 4  S    0.574442  -0.406192   0.703545  -0.127334   0.220550
   42  BR 4  S   -0.011692   0.008267  -0.014319  -0.419549   0.726680
   43  BR 4  X    0.000002  -0.000001   0.000002   0.000235  -0.000408
   44  BR 4  Y    0.000003  -0.000002   0.000004   0.000408  -0.000706
   45  BR 4  Z   -0.000001   0.000001  -0.000002  -0.000199   0.000346
   46  BR 4  S   -0.017448   0.012331  -0.021358   0.009779  -0.016937
   47  BR 4  X   -0.000002   0.000001  -0.000001   0.000013  -0.000022
   48  BR 4  Y   -0.000003   0.000001  -0.000002   0.000022  -0.000039
   49  BR 4  Z    0.000001   0.000000   0.000001  -0.000011   0.000018
   50  BR 4  S   -0.000261   0.000185  -0.000321   0.000104  -0.000180
   51  BR 4  X    0.000005  -0.000001   0.000002  -0.000007   0.000008
   52  BR 4  Y    0.000009  -0.000002   0.000004  -0.000008   0.000016
   53  BR 4  Z   -0.000003   0.000000   0.000000   0.000003  -0.000005
   54  BR 4  S   -0.000062   0.000062  -0.000107   0.000045  -0.000078
   55  BR 4  X    0.000001   0.000010  -0.000003   0.000015  -0.000008
   56  BR 4  Y    0.000002   0.000003  -0.000014   0.000008  -0.000024
   57  BR 4  Z    0.000002   0.000000   0.000000  -0.000002   0.000003
   58  BR 4 XX   -0.008433   0.005960  -0.010323   0.008150  -0.014117
   59  BR 4 YY   -0.008433   0.005960  -0.010323   0.008171  -0.014151
   60  BR 4 ZZ   -0.008433   0.005960  -0.010323   0.008146  -0.014109
   61  BR 4 XY    0.000000   0.000000   0.000000   0.000020  -0.000034
   62  BR 4 XZ    0.000000   0.000000   0.000000  -0.000008   0.000014
   63  BR 4 YZ    0.000000   0.000000   0.000000  -0.000014   0.000025
   64  BR 4 XX   -0.001565   0.001105  -0.001913   0.000785  -0.001358
   65  BR 4 YY   -0.001564   0.001104  -0.001914   0.000779  -0.001350
   66  BR 4 ZZ   -0.001565   0.001105  -0.001913   0.000785  -0.001360
   67  BR 4 XY    0.000001   0.000000   0.000000  -0.000004   0.000008
   68  BR 4 XZ    0.000000   0.000000   0.000000   0.000002  -0.000003
   69  BR 4 YZ    0.000000   0.000000   0.000000   0.000003  -0.000006
   70  BR 5  S    0.574442   0.812383   0.000000   0.254669   0.000000
   71  BR 5  S   -0.011692  -0.016534   0.000000   0.839097   0.000000
   72  BR 5  X   -0.000004  -0.000005   0.000000   0.000941   0.000000
   73  BR 5  Y    0.000000   0.000000   0.000000   0.000000   0.000000
   74  BR 5  Z   -0.000001  -0.000002   0.000000   0.000399   0.000000
   75  BR 5  S   -0.017448  -0.024662   0.000000  -0.019557   0.000000
   76  BR 5  X    0.000004   0.000002   0.000000   0.000052   0.000000
   77  BR 5  Y    0.000000   0.000000   0.000000   0.000000   0.000000
   78  BR 5  Z    0.000001   0.000001   0.000000   0.000021   0.000000
   79  BR 5  S   -0.000261  -0.000371   0.000000  -0.000208   0.000000
   80  BR 5  X   -0.000010  -0.000005   0.000000  -0.000021   0.000000
   81  BR 5  Y    0.000000   0.000000   0.000000   0.000000   0.000002
   82  BR 5  Z   -0.000003   0.000000   0.000000  -0.000006   0.000000
   83  BR 5  S   -0.000062  -0.000123   0.000000  -0.000090   0.000000
   84  BR 5  X   -0.000002   0.000016   0.000000   0.000028   0.000000
   85  BR 5  Y    0.000000   0.000000  -0.000008   0.000000  -0.000010
   86  BR 5  Z    0.000002   0.000000   0.000000   0.000004   0.000000
   87  BR 5 XX   -0.008433  -0.011920   0.000000  -0.016361   0.000000
   88  BR 5 YY   -0.008433  -0.011920   0.000000  -0.016281   0.000000
   89  BR 5 ZZ   -0.008433  -0.011920   0.000000  -0.016292   0.000000
   90  BR 5 XY    0.000000   0.000000   0.000000   0.000000   0.000000
   91  BR 5 XZ    0.000000   0.000000   0.000000  -0.000033   0.000000
   92  BR 5 YZ    0.000000   0.000000   0.000000   0.000000   0.000000
   93  BR 5 XX   -0.001563  -0.002210   0.000000  -0.001554   0.000000
   94  BR 5 YY   -0.001565  -0.002209   0.000000  -0.001573   0.000000
   95  BR 5 ZZ   -0.001565  -0.002209   0.000000  -0.001570   0.000000
   96  BR 5 XY    0.000000   0.000000   0.000001   0.000000   0.000001
   97  BR 5 XZ    0.000000   0.000000   0.000000   0.000008   0.000000
   98  BR 5 YZ    0.000000   0.000000   0.000000   0.000000   0.000000

                      6          7          8          9         10
                  -62.4857   -56.3079   -56.3079   -56.3079   -56.3030
                     A1         A1         E          E          E   
    1  H  1  S    0.000001   0.000072   0.000000   0.000000   0.000000
    2  H  1  S    0.000018   0.000376   0.000000   0.000000   0.000000
    3  C  2  S    0.000003   0.000072   0.000000   0.000000   0.000000
    4  C  2  S    0.000015   0.000454   0.000000   0.000000   0.000000
    5  C  2  X    0.000000   0.000000  -0.000092   0.000000  -0.000001
    6  C  2  Y    0.000000   0.000000   0.000000  -0.000092   0.000000
    7  C  2  Z    0.000000  -0.000013   0.000000   0.000000   0.000000
    8  C  2  S   -0.000037  -0.001111   0.000000   0.000000   0.000000
    9  C  2  X    0.000000   0.000000  -0.000224   0.000000  -0.000033
   10  C  2  Y    0.000000   0.000000   0.000000  -0.000224   0.000000
   11  C  2  Z   -0.000004  -0.000136   0.000000   0.000000   0.000000
   12  BR 3  S    0.180078  -0.000235   0.000164  -0.000284   0.000009
   13  BR 3  S    0.593332  -0.000818   0.000565  -0.000978   0.000026
   14  BR 3  X   -0.000333  -0.270788   0.191269  -0.331724  -0.062873
   15  BR 3  Y    0.000576   0.469019  -0.331724   0.574311   0.121836
   16  BR 3  Z    0.000282   0.193510  -0.136954   0.237211  -0.382909
   17  BR 3  S   -0.013826  -0.000370   0.000145  -0.000251  -0.000043
   18  BR 3  X   -0.000019  -0.002849   0.001994  -0.003474  -0.000653
   19  BR 3  Y    0.000033   0.004935  -0.003474   0.006006   0.001267
   20  BR 3  Z    0.000015   0.002029  -0.001432   0.002480  -0.003980
   21  BR 3  S   -0.000139  -0.000217   0.000116  -0.000201  -0.000054
   22  BR 3  X    0.000009   0.000624  -0.000376   0.000693   0.000125
   23  BR 3  Y   -0.000015  -0.001081   0.000693  -0.001177  -0.000244
   24  BR 3  Z   -0.000007  -0.000421   0.000276  -0.000478   0.000751
   25  BR 3  S   -0.000035   0.000154   0.000113  -0.000196  -0.000094
   26  BR 3  X   -0.000001  -0.000189   0.000297  -0.000297  -0.000115
   27  BR 3  Y    0.000002   0.000328  -0.000297   0.000639   0.000140
   28  BR 3  Z    0.000004   0.000176  -0.000100   0.000173  -0.000354
   29  BR 3 XX   -0.011526  -0.000133   0.000043  -0.000083  -0.000020
   30  BR 3 YY   -0.011554  -0.000177   0.000077  -0.000126  -0.000032
   31  BR 3 ZZ   -0.011519  -0.000122   0.000043  -0.000074   0.000008
   32  BR 3 XY    0.000028   0.000044  -0.000024   0.000048   0.000009
   33  BR 3 XZ    0.000012   0.000018  -0.000012   0.000022  -0.000013
   34  BR 3 YZ   -0.000020  -0.000032   0.000022  -0.000038   0.000024
   35  BR 3 XX   -0.001109  -0.000097   0.000045  -0.000054  -0.000012
   36  BR 3 YY   -0.001101  -0.000068   0.000016  -0.000052  -0.000005
   37  BR 3 ZZ   -0.001111  -0.000110   0.000033  -0.000058  -0.000015
   38  BR 3 XY   -0.000008  -0.000029   0.000001  -0.000018   0.000001
   39  BR 3 XZ   -0.000003  -0.000009   0.000003  -0.000010   0.000001
   40  BR 3 YZ    0.000005   0.000015  -0.000010   0.000014  -0.000007
   41  BR 4  S    0.180078  -0.000235   0.000164   0.000284   0.000009
   42  BR 4  S    0.593332  -0.000818   0.000565   0.000978   0.000026
   43  BR 4  X   -0.000333  -0.270788   0.191269   0.331724  -0.062873
   44  BR 4  Y   -0.000576  -0.469019   0.331724   0.574311  -0.121836
   45  BR 4  Z    0.000282   0.193510  -0.136954  -0.237211  -0.382909
   46  BR 4  S   -0.013826  -0.000370   0.000145   0.000251  -0.000043
   47  BR 4  X   -0.000019  -0.002849   0.001994   0.003474  -0.000653
   48  BR 4  Y   -0.000033  -0.004935   0.003474   0.006006  -0.001267
   49  BR 4  Z    0.000015   0.002029  -0.001432  -0.002480  -0.003980
   50  BR 4  S   -0.000139  -0.000217   0.000116   0.000201  -0.000054
   51  BR 4  X    0.000009   0.000624  -0.000376  -0.000693   0.000125
   52  BR 4  Y    0.000015   0.001081  -0.000693  -0.001177   0.000244
   53  BR 4  Z   -0.000007  -0.000421   0.000276   0.000478   0.000751
   54  BR 4  S   -0.000035   0.000154   0.000113   0.000196  -0.000094
   55  BR 4  X   -0.000001  -0.000189   0.000297   0.000297  -0.000115
   56  BR 4  Y   -0.000002  -0.000328   0.000297   0.000639  -0.000140
   57  BR 4  Z    0.000004   0.000176  -0.000100  -0.000173  -0.000354
   58  BR 4 XX   -0.011526  -0.000133   0.000043   0.000083  -0.000020
   59  BR 4 YY   -0.011554  -0.000177   0.000077   0.000126  -0.000032
   60  BR 4 ZZ   -0.011519  -0.000122   0.000043   0.000074   0.000008
   61  BR 4 XY   -0.000028  -0.000044   0.000024   0.000048  -0.000009
   62  BR 4 XZ    0.000012   0.000018  -0.000012  -0.000022  -0.000013
   63  BR 4 YZ    0.000020   0.000032  -0.000022  -0.000038  -0.000024
   64  BR 4 XX   -0.001109  -0.000097   0.000045   0.000054  -0.000012
   65  BR 4 YY   -0.001101  -0.000068   0.000016   0.000052  -0.000005
   66  BR 4 ZZ   -0.001111  -0.000110   0.000033   0.000058  -0.000015
   67  BR 4 XY    0.000008   0.000029  -0.000001  -0.000018  -0.000001
   68  BR 4 XZ   -0.000003  -0.000009   0.000003   0.000010   0.000001
   69  BR 4 YZ   -0.000005  -0.000015   0.000010   0.000014   0.000007
   70  BR 5  S    0.180078  -0.000235  -0.000328   0.000000  -0.000018
   71  BR 5  S    0.593332  -0.000818  -0.001129   0.000000  -0.000051
   72  BR 5  X    0.000665   0.541576   0.765831   0.000000  -0.273900
   73  BR 5  Y    0.000000   0.000000   0.000000  -0.000252   0.000000
   74  BR 5  Z    0.000282   0.193510   0.273908   0.000000   0.765818
   75  BR 5  S   -0.013826  -0.000370  -0.000290   0.000000   0.000086
   76  BR 5  X    0.000038   0.005699   0.008011   0.000000  -0.002848
   77  BR 5  Y    0.000000   0.000000   0.000000  -0.000011   0.000000
   78  BR 5  Z    0.000015   0.002029   0.002864   0.000000   0.007960
   79  BR 5  S   -0.000139  -0.000217  -0.000232   0.000000   0.000107
   80  BR 5  X   -0.000018  -0.001248  -0.001577   0.000000   0.000548
   81  BR 5  Y    0.000000   0.000000   0.000000   0.000024   0.000000
   82  BR 5  Z   -0.000007  -0.000421  -0.000552   0.000000  -0.001501
   83  BR 5  S   -0.000035   0.000154  -0.000227   0.000000   0.000188
   84  BR 5  X    0.000002   0.000379   0.000811   0.000000  -0.000358
   85  BR 5  Y    0.000000   0.000000   0.000000   0.000126   0.000000
   86  BR 5  Z    0.000004   0.000176   0.000199   0.000000   0.000709
   87  BR 5 XX   -0.011568  -0.000199  -0.000174   0.000000   0.000071
   88  BR 5 YY   -0.011512  -0.000111  -0.000067   0.000000   0.000032
   89  BR 5 ZZ   -0.011519  -0.000122  -0.000085   0.000000  -0.000016
   90  BR 5 XY    0.000000   0.000000   0.000000   0.000006   0.000000
   91  BR 5 XZ   -0.000023  -0.000037  -0.000050   0.000000  -0.000055
   92  BR 5 YZ    0.000000   0.000000   0.000000   0.000001   0.000000
   93  BR 5 XX   -0.001097  -0.000053  -0.000045   0.000000   0.000014
   94  BR 5 YY   -0.001112  -0.000111  -0.000077   0.000000   0.000019
   95  BR 5 ZZ   -0.001111  -0.000110  -0.000067   0.000000   0.000031
   96  BR 5 XY    0.000000   0.000000   0.000000  -0.000016   0.000000
   97  BR 5 XZ    0.000006   0.000017   0.000020   0.000000   0.000013
   98  BR 5 YZ    0.000000   0.000000   0.000000  -0.000003   0.000000

                     11         12         13         14         15
                  -56.3030   -56.3030   -56.3029   -56.3029   -56.3029
                     E          A1         A2         E          E   
    1  H  1  S    0.000000   0.000007   0.000000   0.000000   0.000000
    2  H  1  S    0.000000   0.000428   0.000000   0.000000   0.000000
    3  C  2  S    0.000000  -0.000001   0.000000   0.000000   0.000000
    4  C  2  S    0.000000  -0.000021   0.000000   0.000000   0.000000
    5  C  2  X    0.000000   0.000000   0.000000  -0.000048   0.000000
    6  C  2  Y    0.000001   0.000000   0.000000   0.000000  -0.000048
    7  C  2  Z    0.000000  -0.000054   0.000000   0.000000   0.000000
    8  C  2  S    0.000000  -0.000076   0.000000   0.000000   0.000000
    9  C  2  X    0.000000   0.000000   0.000000   0.000260   0.000000
   10  C  2  Y    0.000033   0.000000   0.000000   0.000000   0.000260
   11  C  2  Z    0.000000   0.000333   0.000000   0.000000   0.000000
   12  BR 3  S    0.000016  -0.000013   0.000000   0.000000   0.000000
   13  BR 3  S    0.000045  -0.000042   0.000000   0.000006  -0.000011
   14  BR 3  X   -0.121836   0.096757  -0.498078   0.610683   0.350986
   15  BR 3  Y    0.203558  -0.167588  -0.287566   0.350986   0.205399
   16  BR 3  Z   -0.663218   0.541600   0.000000   0.003474  -0.006016
   17  BR 3  S   -0.000075   0.000019   0.000000   0.000047  -0.000081
   18  BR 3  X   -0.001267   0.001009  -0.005181   0.006347   0.003653
   19  BR 3  Y    0.002116  -0.001748  -0.002991   0.003653   0.002129
   20  BR 3  Z   -0.006893   0.005626   0.000000   0.000037  -0.000064
   21  BR 3  S   -0.000093  -0.000001   0.000000   0.000072  -0.000125
   22  BR 3  X    0.000244  -0.000203   0.001000  -0.001191  -0.000705
   23  BR 3  Y   -0.000407   0.000351   0.000578  -0.000705  -0.000377
   24  BR 3  Z    0.001300  -0.001039   0.000000  -0.000011   0.000019
   25  BR 3  S   -0.000163  -0.000099   0.000000   0.000210  -0.000364
   26  BR 3  X   -0.000140   0.000050  -0.000578   0.000560   0.000205
   27  BR 3  Y    0.000277  -0.000087  -0.000334   0.000205   0.000323
   28  BR 3  Z   -0.000614   0.000400   0.000000  -0.000024   0.000042
   29  BR 3 XX   -0.000037   0.000017  -0.000035   0.000061   0.000002
   30  BR 3 YY   -0.000052   0.000033   0.000035  -0.000033  -0.000051
   31  BR 3 ZZ    0.000014  -0.000026   0.000000   0.000015  -0.000027
   32  BR 3 XY    0.000017  -0.000016   0.000023  -0.000030  -0.000019
   33  BR 3 XZ   -0.000024   0.000021   0.000018  -0.000022  -0.000014
   34  BR 3 YZ    0.000041  -0.000036   0.000010  -0.000014  -0.000006
   35  BR 3 XX   -0.000014   0.000004   0.000004  -0.000005  -0.000027
   36  BR 3 YY   -0.000015  -0.000005  -0.000004   0.000029  -0.000013
   37  BR 3 ZZ   -0.000027   0.000020   0.000000   0.000007  -0.000012
   38  BR 3 XY   -0.000003   0.000010  -0.000002   0.000008   0.000011
   39  BR 3 XZ    0.000007  -0.000008  -0.000005   0.000006   0.000007
   40  BR 3 YZ   -0.000009   0.000013  -0.000003   0.000007  -0.000002
   41  BR 4  S   -0.000016  -0.000013   0.000000   0.000000   0.000000
   42  BR 4  S   -0.000045  -0.000042   0.000000   0.000006   0.000011
   43  BR 4  X    0.121836   0.096757   0.498078   0.610683  -0.350986
   44  BR 4  Y    0.203558   0.167588  -0.287566  -0.350986   0.205399
   45  BR 4  Z    0.663218   0.541600   0.000000   0.003474   0.006016
   46  BR 4  S    0.000075   0.000019   0.000000   0.000047   0.000081
   47  BR 4  X    0.001267   0.001009   0.005181   0.006347  -0.003653
   48  BR 4  Y    0.002116   0.001748  -0.002991  -0.003653   0.002129
   49  BR 4  Z    0.006893   0.005626   0.000000   0.000037   0.000064
   50  BR 4  S    0.000093  -0.000001   0.000000   0.000072   0.000125
   51  BR 4  X   -0.000244  -0.000203  -0.001000  -0.001191   0.000705
   52  BR 4  Y   -0.000407  -0.000351   0.000578   0.000705  -0.000377
   53  BR 4  Z   -0.001300  -0.001039   0.000000  -0.000011  -0.000019
   54  BR 4  S    0.000163  -0.000099   0.000000   0.000210   0.000364
   55  BR 4  X    0.000140   0.000050   0.000578   0.000560  -0.000205
   56  BR 4  Y    0.000277   0.000087  -0.000334  -0.000205   0.000323
   57  BR 4  Z    0.000614   0.000400   0.000000  -0.000024  -0.000042
   58  BR 4 XX    0.000037   0.000017   0.000035   0.000061  -0.000002
   59  BR 4 YY    0.000052   0.000033  -0.000035  -0.000033   0.000051
   60  BR 4 ZZ   -0.000014  -0.000026   0.000000   0.000015   0.000027
   61  BR 4 XY    0.000017   0.000016   0.000023   0.000030  -0.000019
   62  BR 4 XZ    0.000024   0.000021  -0.000018  -0.000022   0.000014
   63  BR 4 YZ    0.000041   0.000036   0.000010   0.000014  -0.000006
   64  BR 4 XX    0.000014   0.000004  -0.000004  -0.000005   0.000027
   65  BR 4 YY    0.000015  -0.000005   0.000004   0.000029   0.000013
   66  BR 4 ZZ    0.000027   0.000020   0.000000   0.000007   0.000012
   67  BR 4 XY   -0.000003  -0.000010  -0.000002  -0.000008   0.000011
   68  BR 4 XZ   -0.000007  -0.000008   0.000005   0.000006  -0.000007
   69  BR 4 YZ   -0.000009  -0.000013  -0.000003  -0.000007  -0.000002
   70  BR 5  S    0.000000  -0.000013   0.000000   0.000000   0.000000
   71  BR 5  S    0.000000  -0.000042   0.000000  -0.000012   0.000000
   72  BR 5  X    0.000000  -0.193514   0.000000   0.002757   0.000000
   73  BR 5  Y   -0.007469   0.000000   0.575131   0.000000   0.813325
   74  BR 5  Z    0.000000   0.541600   0.000000  -0.006947   0.000000
   75  BR 5  S    0.000000   0.000019   0.000000  -0.000093   0.000000
   76  BR 5  X    0.000000  -0.002018   0.000000   0.000020   0.000000
   77  BR 5  Y   -0.000079   0.000000   0.005982   0.000000   0.008456
   78  BR 5  Z    0.000000   0.005626   0.000000  -0.000074   0.000000
   79  BR 5  S    0.000000  -0.000001   0.000000  -0.000144   0.000000
   80  BR 5  X    0.000000   0.000405   0.000000   0.000030   0.000000
   81  BR 5  Y    0.000016   0.000000  -0.001155   0.000000  -0.001598
   82  BR 5  Z    0.000000  -0.001039   0.000000   0.000022   0.000000
   83  BR 5  S    0.000000  -0.000099   0.000000  -0.000420   0.000000
   84  BR 5  X    0.000000  -0.000100   0.000000   0.000204   0.000000
   85  BR 5  Y    0.000035   0.000000   0.000668   0.000000   0.000678
   86  BR 5  Z    0.000000   0.000400   0.000000   0.000048   0.000000
   87  BR 5 XX    0.000000   0.000042   0.000000  -0.000027   0.000000
   88  BR 5 YY    0.000000   0.000009   0.000000  -0.000030   0.000000
   89  BR 5 ZZ    0.000000  -0.000026   0.000000  -0.000031   0.000000
   90  BR 5 XY    0.000002   0.000000  -0.000047   0.000000  -0.000072
   91  BR 5 XZ    0.000000  -0.000041   0.000000   0.000003   0.000000
   92  BR 5 YZ   -0.000001   0.000000  -0.000021   0.000000  -0.000030
   93  BR 5 XX    0.000000  -0.000010   0.000000  -0.000029   0.000000
   94  BR 5 YY    0.000000   0.000009   0.000000  -0.000018   0.000000
   95  BR 5 ZZ    0.000000   0.000020   0.000000  -0.000014   0.000000
   96  BR 5 XY   -0.000004   0.000000   0.000005   0.000000   0.000024
   97  BR 5 XZ    0.000000   0.000016   0.000000  -0.000006   0.000000
   98  BR 5 YZ    0.000003   0.000000   0.000005   0.000000   0.000010

                     16         17         18         19         20
                  -10.3440    -8.6880    -8.6880    -8.6880    -6.5215
                     A1         E          E          A1         A1  
    1  H  1  S   -0.000536   0.000000   0.000000  -0.000029  -0.000326
    2  H  1  S    0.004843   0.000000   0.000000  -0.000120  -0.001838
    3  C  2  S    0.995385   0.000000   0.000000   0.000051  -0.000146
    4  C  2  S    0.036665   0.000000   0.000000  -0.000123  -0.001591
    5  C  2  X    0.000000   0.000008   0.000000   0.000000   0.000000
    6  C  2  Y    0.000000   0.000000  -0.000008   0.000000   0.000000
    7  C  2  Z    0.000588   0.000000   0.000000  -0.000013   0.000080
    8  C  2  S   -0.027166   0.000000   0.000000   0.000320   0.004306
    9  C  2  X    0.000000   0.000084   0.000000   0.000000   0.000000
   10  C  2  Y    0.000000   0.000000  -0.000084   0.000000   0.000000
   11  C  2  Z   -0.000357   0.000000   0.000000   0.000048   0.000602
   12  BR 3  S    0.000003   0.050688   0.087794  -0.071683   0.000666
   13  BR 3  S    0.000019   0.195604   0.338796  -0.276624   0.002636
   14  BR 3  X    0.000002  -0.000666  -0.001154   0.000941   0.111049
   15  BR 3  Y   -0.000003   0.001154   0.001999  -0.001630  -0.192343
   16  BR 3  Z    0.000002   0.000546   0.000946  -0.000772  -0.078613
   17  BR 3  S    0.000177  -0.438066  -0.758753   0.619546  -0.005118
   18  BR 3  X   -0.000012   0.001730   0.002993  -0.002440  -0.291199
   19  BR 3  Y    0.000020  -0.002993  -0.005185   0.004225   0.504372
   20  BR 3  Z   -0.000005  -0.001418  -0.002455   0.002003   0.206152
   21  BR 3  S   -0.000335  -0.002182  -0.003779   0.003120   0.001086
   22  BR 3  X    0.000423   0.000111   0.000209  -0.000193  -0.005598
   23  BR 3  Y   -0.000733  -0.000209  -0.000353   0.000333   0.009696
   24  BR 3  Z   -0.000245  -0.000088  -0.000152   0.000135   0.003835
   25  BR 3  S    0.003143  -0.000280  -0.000484   0.000309  -0.000666
   26  BR 3  X    0.001031  -0.000075  -0.000070   0.000051   0.001344
   27  BR 3  Y   -0.001786   0.000070   0.000156  -0.000088  -0.002327
   28  BR 3  Z   -0.000773   0.000024   0.000041  -0.000051  -0.001149
   29  BR 3 XX    0.000081   0.001708   0.002956  -0.002405   0.000573
   30  BR 3 YY    0.000054   0.002041   0.003537  -0.002877  -0.000441
   31  BR 3 ZZ    0.000089   0.001626   0.002817  -0.002292   0.000780
   32  BR 3 XY    0.000027  -0.000335  -0.000579   0.000472   0.001014
   33  BR 3 XZ    0.000010  -0.000138  -0.000238   0.000194   0.000452
   34  BR 3 YZ   -0.000017   0.000238   0.000413  -0.000337  -0.000783
   35  BR 3 XX    0.000006   0.002425   0.004206  -0.003419   0.000278
   36  BR 3 YY    0.000128   0.002784   0.004815  -0.003923  -0.000589
   37  BR 3 ZZ   -0.000030   0.002338   0.004050  -0.003290   0.000491
   38  BR 3 XY   -0.000122  -0.000352  -0.000614   0.000504   0.000867
   39  BR 3 XZ   -0.000045  -0.000145  -0.000252   0.000206   0.000367
   40  BR 3 YZ    0.000078   0.000252   0.000435  -0.000356  -0.000635
   41  BR 4  S    0.000003   0.050688  -0.087794  -0.071683   0.000666
   42  BR 4  S    0.000019   0.195604  -0.338796  -0.276624   0.002636
   43  BR 4  X    0.000002  -0.000666   0.001154   0.000941   0.111049
   44  BR 4  Y    0.000003  -0.001154   0.001999   0.001630   0.192343
   45  BR 4  Z    0.000002   0.000546  -0.000946  -0.000772  -0.078613
   46  BR 4  S    0.000177  -0.438066   0.758753   0.619546  -0.005118
   47  BR 4  X   -0.000012   0.001730  -0.002993  -0.002440  -0.291199
   48  BR 4  Y   -0.000020   0.002993  -0.005185  -0.004225  -0.504372
   49  BR 4  Z   -0.000005  -0.001418   0.002455   0.002003   0.206152
   50  BR 4  S   -0.000335  -0.002182   0.003779   0.003120   0.001086
   51  BR 4  X    0.000423   0.000111  -0.000209  -0.000193  -0.005598
   52  BR 4  Y    0.000733   0.000209  -0.000353  -0.000333  -0.009696
   53  BR 4  Z   -0.000245  -0.000088   0.000152   0.000135   0.003835
   54  BR 4  S    0.003143  -0.000280   0.000484   0.000309  -0.000666
   55  BR 4  X    0.001031  -0.000075   0.000070   0.000051   0.001344
   56  BR 4  Y    0.001786  -0.000070   0.000156   0.000088   0.002327
   57  BR 4  Z   -0.000773   0.000024  -0.000041  -0.000051  -0.001149
   58  BR 4 XX    0.000081   0.001708  -0.002956  -0.002405   0.000573
   59  BR 4 YY    0.000054   0.002041  -0.003537  -0.002877  -0.000441
   60  BR 4 ZZ    0.000089   0.001626  -0.002817  -0.002292   0.000780
   61  BR 4 XY   -0.000027   0.000335  -0.000579  -0.000472  -0.001014
   62  BR 4 XZ    0.000010  -0.000138   0.000238   0.000194   0.000452
   63  BR 4 YZ    0.000017  -0.000238   0.000413   0.000337   0.000783
   64  BR 4 XX    0.000006   0.002425  -0.004206  -0.003419   0.000278
   65  BR 4 YY    0.000128   0.002784  -0.004815  -0.003923  -0.000589
   66  BR 4 ZZ   -0.000030   0.002338  -0.004050  -0.003290   0.000491
   67  BR 4 XY    0.000122   0.000352  -0.000614  -0.000504  -0.000867
   68  BR 4 XZ   -0.000045  -0.000145   0.000252   0.000206   0.000367
   69  BR 4 YZ   -0.000078  -0.000252   0.000435   0.000356   0.000635
   70  BR 5  S    0.000003  -0.101376   0.000000  -0.071683   0.000666
   71  BR 5  S    0.000019  -0.391208   0.000000  -0.276624   0.002636
   72  BR 5  X   -0.000004  -0.002665   0.000000  -0.001882  -0.222098
   73  BR 5  Y    0.000000   0.000000   0.000000   0.000000   0.000000
   74  BR 5  Z    0.000002  -0.001092   0.000000  -0.000772  -0.078613
   75  BR 5  S    0.000177   0.876132   0.000000   0.619546  -0.005118
   76  BR 5  X    0.000023   0.006913   0.000000   0.004879   0.582398
   77  BR 5  Y    0.000000   0.000000  -0.000002   0.000000   0.000000
   78  BR 5  Z   -0.000005   0.002835   0.000000   0.002003   0.206152
   79  BR 5  S   -0.000335   0.004364   0.000000   0.003120   0.001086
   80  BR 5  X   -0.000846   0.000474   0.000000   0.000385   0.011196
   81  BR 5  Y    0.000000   0.000000   0.000010   0.000000   0.000000
   82  BR 5  Z   -0.000245   0.000175   0.000000   0.000135   0.003835
   83  BR 5  S    0.003143   0.000559   0.000000   0.000309  -0.000666
   84  BR 5  X   -0.002063  -0.000196   0.000000  -0.000102  -0.002687
   85  BR 5  Y    0.000000   0.000000   0.000034   0.000000   0.000000
   86  BR 5  Z   -0.000773  -0.000048   0.000000  -0.000051  -0.001149
   87  BR 5 XX    0.000040  -0.004418   0.000000  -0.003113  -0.000948
   88  BR 5 YY    0.000094  -0.003080   0.000000  -0.002169   0.001080
   89  BR 5 ZZ    0.000089  -0.003252   0.000000  -0.002292   0.000780
   90  BR 5 XY    0.000000   0.000000   0.000001   0.000000   0.000000
   91  BR 5 XZ   -0.000020  -0.000550   0.000000  -0.000389  -0.000904
   92  BR 5 YZ    0.000000   0.000000   0.000000   0.000000   0.000000
   93  BR 5 XX    0.000189  -0.005916   0.000000  -0.004176  -0.001022
   94  BR 5 YY   -0.000056  -0.004501   0.000000  -0.003167   0.000711
   95  BR 5 ZZ   -0.000030  -0.004677   0.000000  -0.003290   0.000491
   96  BR 5 XY    0.000000   0.000000  -0.000004   0.000000   0.000000
   97  BR 5 XZ    0.000090  -0.000581   0.000000  -0.000411  -0.000733
   98  BR 5 YZ    0.000000   0.000000  -0.000001   0.000000   0.000000

                     21         22         23         24         25
                   -6.5215    -6.5215    -6.5047    -6.5046    -6.5046
                     E          E          A2         E          E   
    1  H  1  S    0.000000   0.000000   0.000000   0.000000   0.000000
    2  H  1  S    0.000000   0.000000   0.000000   0.000000   0.000000
    3  C  2  S    0.000000   0.000000   0.000000   0.000000   0.000000
    4  C  2  S    0.000000   0.000000   0.000000   0.000000   0.000000
    5  C  2  X    0.000481   0.000000   0.000000   0.000172   0.000000
    6  C  2  Y    0.000000   0.000481   0.000000   0.000000   0.000172
    7  C  2  Z    0.000000   0.000000   0.000000   0.000000   0.000000
    8  C  2  S    0.000000   0.000000   0.000000   0.000000   0.000000
    9  C  2  X    0.000967   0.000000   0.000000  -0.001136   0.000000
   10  C  2  Y    0.000000   0.000967   0.000000   0.000000  -0.001136
   11  C  2  Z    0.000000   0.000000   0.000000   0.000000   0.000000
   12  BR 3  S   -0.000469   0.000812   0.000000  -0.000003   0.000005
   13  BR 3  S   -0.001858   0.003217   0.000000  -0.000026   0.000044
   14  BR 3  X   -0.078490   0.136047   0.204136  -0.242649  -0.150063
   15  BR 3  Y    0.136047  -0.235584   0.117858  -0.150063  -0.069371
   16  BR 3  Z    0.055624  -0.096344   0.000000   0.024496  -0.042428
   17  BR 3  S    0.003746  -0.006489   0.000000  -0.000057   0.000098
   18  BR 3  X    0.205842  -0.356770  -0.535444   0.636471   0.393610
   19  BR 3  Y   -0.356770   0.617804  -0.309139   0.393610   0.181969
   20  BR 3  Z   -0.145872   0.252657   0.000000  -0.064254   0.111292
   21  BR 3  S   -0.000646   0.001118   0.000000  -0.000261   0.000452
   22  BR 3  X    0.003643  -0.006528  -0.008988   0.010509   0.006610
   23  BR 3  Y   -0.006528   0.011180  -0.005189   0.006610   0.002877
   24  BR 3  Z   -0.002618   0.004535   0.000000  -0.001046   0.001811
   25  BR 3  S   -0.000655   0.001135   0.000000  -0.000895   0.001551
   26  BR 3  X   -0.001740   0.001943   0.003281  -0.003091  -0.001442
   27  BR 3  Y    0.001943  -0.003983   0.001894  -0.001442  -0.001427
   28  BR 3  Z    0.000682  -0.001182   0.000000   0.000450  -0.000779
   29  BR 3 XX   -0.000343   0.000612  -0.000981   0.001134   0.000757
   30  BR 3 YY    0.000367  -0.000653   0.000981  -0.001262  -0.000535
   31  BR 3 ZZ   -0.000504   0.000873   0.000000   0.000071  -0.000123
   32  BR 3 XY   -0.000730   0.001253   0.000654  -0.000746  -0.000522
   33  BR 3 XZ   -0.000322   0.000554   0.000463  -0.000618  -0.000222
   34  BR 3 YZ    0.000554  -0.000961   0.000267  -0.000222  -0.000362
   35  BR 3 XX   -0.000138   0.000167  -0.000781   0.000937   0.000638
   36  BR 3 YY    0.000502  -0.000796   0.000781  -0.001062  -0.000422
   37  BR 3 ZZ   -0.000225   0.000391   0.000000   0.000062  -0.000107
   38  BR 3 XY   -0.000556   0.001012   0.000521  -0.000612  -0.000447
   39  BR 3 XZ   -0.000250   0.000447   0.000367  -0.000489  -0.000184
   40  BR 3 YZ    0.000447  -0.000766   0.000212  -0.000184  -0.000277
   41  BR 4  S   -0.000469  -0.000812   0.000000  -0.000003  -0.000005
   42  BR 4  S   -0.001858  -0.003217   0.000000  -0.000026  -0.000044
   43  BR 4  X   -0.078490  -0.136047  -0.204136  -0.242649   0.150063
   44  BR 4  Y   -0.136047  -0.235584   0.117858   0.150063  -0.069371
   45  BR 4  Z    0.055624   0.096344   0.000000   0.024496   0.042428
   46  BR 4  S    0.003746   0.006489   0.000000  -0.000057  -0.000098
   47  BR 4  X    0.205842   0.356770   0.535444   0.636471  -0.393610
   48  BR 4  Y    0.356770   0.617804  -0.309139  -0.393610   0.181969
   49  BR 4  Z   -0.145872  -0.252657   0.000000  -0.064254  -0.111292
   50  BR 4  S   -0.000646  -0.001118   0.000000  -0.000261  -0.000452
   51  BR 4  X    0.003643   0.006528   0.008988   0.010509  -0.006610
   52  BR 4  Y    0.006528   0.011180  -0.005189  -0.006610   0.002877
   53  BR 4  Z   -0.002618  -0.004535   0.000000  -0.001046  -0.001811
   54  BR 4  S   -0.000655  -0.001135   0.000000  -0.000895  -0.001551
   55  BR 4  X   -0.001740  -0.001943  -0.003281  -0.003091   0.001442
   56  BR 4  Y   -0.001943  -0.003983   0.001894   0.001442  -0.001427
   57  BR 4  Z    0.000682   0.001182   0.000000   0.000450   0.000779
   58  BR 4 XX   -0.000343  -0.000612   0.000981   0.001134  -0.000757
   59  BR 4 YY    0.000367   0.000653  -0.000981  -0.001262   0.000535
   60  BR 4 ZZ   -0.000504  -0.000873   0.000000   0.000071   0.000123
   61  BR 4 XY    0.000730   0.001253   0.000654   0.000746  -0.000522
   62  BR 4 XZ   -0.000322  -0.000554  -0.000463  -0.000618   0.000222
   63  BR 4 YZ   -0.000554  -0.000961   0.000267   0.000222  -0.000362
   64  BR 4 XX   -0.000138  -0.000167   0.000781   0.000937  -0.000638
   65  BR 4 YY    0.000502   0.000796  -0.000781  -0.001062   0.000422
   66  BR 4 ZZ   -0.000225  -0.000391   0.000000   0.000062   0.000107
   67  BR 4 XY    0.000556   0.001012   0.000521   0.000612  -0.000447
   68  BR 4 XZ   -0.000250  -0.000447  -0.000367  -0.000489   0.000184
   69  BR 4 YZ   -0.000447  -0.000766   0.000212   0.000184  -0.000277
   70  BR 5  S    0.000938   0.000000   0.000000   0.000006   0.000000
   71  BR 5  S    0.003715   0.000000   0.000000   0.000051   0.000000
   72  BR 5  X   -0.314130   0.000000   0.000000   0.017267   0.000000
   73  BR 5  Y    0.000000   0.000057  -0.235716   0.000000  -0.329288
   74  BR 5  Z   -0.111248   0.000000   0.000000  -0.048992   0.000000
   75  BR 5  S   -0.007493   0.000000   0.000000   0.000113   0.000000
   76  BR 5  X    0.823785   0.000000   0.000000  -0.045281   0.000000
   77  BR 5  Y    0.000000  -0.000139   0.618277   0.000000   0.863721
   78  BR 5  Z    0.291743   0.000000   0.000000   0.128509   0.000000
   79  BR 5  S    0.001291   0.000000   0.000000   0.000522   0.000000
   80  BR 5  X    0.014949   0.000000   0.000000  -0.000940   0.000000
   81  BR 5  Y    0.000000  -0.000126   0.010378   0.000000   0.014326
   82  BR 5  Z    0.005236   0.000000   0.000000   0.002091   0.000000
   83  BR 5  S    0.001310   0.000000   0.000000   0.001791   0.000000
   84  BR 5  X   -0.005105   0.000000   0.000000  -0.000594   0.000000
   85  BR 5  Y    0.000000  -0.000618  -0.003788   0.000000  -0.003924
   86  BR 5  Z   -0.001365   0.000000   0.000000  -0.000899   0.000000
   87  BR 5 XX   -0.001474   0.000000   0.000000   0.000207   0.000000
   88  BR 5 YY    0.001427   0.000000   0.000000   0.000049   0.000000
   89  BR 5 ZZ    0.001008   0.000000   0.000000  -0.000142   0.000000
   90  BR 5 XY    0.000000  -0.000011  -0.001308   0.000000  -0.001814
   91  BR 5 XZ   -0.001281   0.000000   0.000000  -0.000235   0.000000
   92  BR 5 YZ    0.000000  -0.000002  -0.000535   0.000000  -0.000746
   93  BR 5 XX   -0.001518   0.000000   0.000000   0.000206   0.000000
   94  BR 5 YY    0.000791   0.000000   0.000000   0.000044   0.000000
   95  BR 5 ZZ    0.000451   0.000000   0.000000  -0.000123   0.000000
   96  BR 5 XY    0.000000   0.000048  -0.001041   0.000000  -0.001508
   97  BR 5 XZ   -0.001025   0.000000   0.000000  -0.000170   0.000000
   98  BR 5 YZ    0.000000   0.000008  -0.000423   0.000000  -0.000596

                     26         27         28         29         30
                   -6.5046    -6.5046    -6.5046    -2.6109    -2.6103
                     E          E          A1         A1         E   
    1  H  1  S    0.000000   0.000000  -0.000057  -0.004412   0.000000
    2  H  1  S    0.000000   0.000000  -0.002100  -0.001137   0.000000
    3  C  2  S    0.000000   0.000000   0.000001  -0.005859   0.000000
    4  C  2  S    0.000000   0.000000   0.000073  -0.023890   0.000000
    5  C  2  X   -0.000002   0.000000   0.000000   0.000000   0.003238
    6  C  2  Y    0.000000   0.000002   0.000000   0.000000   0.000000
    7  C  2  Z    0.000000   0.000000   0.000185   0.001380   0.000000
    8  C  2  S    0.000000   0.000000   0.000456   0.093701   0.000000
    9  C  2  X    0.000331   0.000000   0.000000   0.000000   0.041712
   10  C  2  Y    0.000000  -0.000331   0.000000   0.000000   0.000000
   11  C  2  Z    0.000000   0.000000  -0.001564   0.017953   0.000000
   12  BR 3  S   -0.000022  -0.000038   0.000031  -0.000241   0.000170
   13  BR 3  S   -0.000072  -0.000125   0.000122  -0.001041   0.000976
   14  BR 3  X    0.066445   0.025109  -0.039319   0.000360  -0.000381
   15  BR 3  Y   -0.025109  -0.095439   0.068102  -0.000623   0.000595
   16  BR 3  Z    0.155199   0.268812  -0.222222  -0.000231   0.000230
   17  BR 3  S    0.000282   0.000489  -0.000276   0.003293  -0.000225
   18  BR 3  X   -0.174286  -0.065861   0.103130  -0.000888   0.001150
   19  BR 3  Y    0.065861   0.250336  -0.178626   0.001539  -0.001619
   20  BR 3  Z   -0.407087  -0.705096   0.582893   0.000603  -0.000630
   21  BR 3  S    0.000280   0.000484   0.000004  -0.001199   0.007406
   22  BR 3  X   -0.002886  -0.001105   0.001771  -0.002044  -0.002011
   23  BR 3  Y    0.001105   0.004162  -0.003067   0.003539  -0.000400
   24  BR 3  Z   -0.006744  -0.011681   0.009542   0.000689  -0.000068
   25  BR 3  S    0.000594   0.001028   0.000476  -0.019667   0.021319
   26  BR 3  X    0.001130   0.000550  -0.000332  -0.008047   0.007601
   27  BR 3  Y   -0.000550  -0.001765   0.000575   0.013938  -0.012716
   28  BR 3  Z    0.002029   0.003515  -0.002408   0.005044  -0.005387
   29  BR 3 XX   -0.000328  -0.000134   0.000228  -0.069241   0.081570
   30  BR 3 YY   -0.000216  -0.000807   0.000599   0.223879  -0.177904
   31  BR 3 ZZ    0.000605   0.001048  -0.000835  -0.153543   0.097301
   32  BR 3 XY    0.000388   0.000384  -0.000371  -0.293120   0.179472
   33  BR 3 XZ   -0.000278  -0.000682   0.000521  -0.108506   0.070242
   34  BR 3 YZ    0.000682   0.001066  -0.000902   0.187938  -0.158224
   35  BR 3 XX   -0.000237  -0.000070   0.000159  -0.036495   0.044170
   36  BR 3 YY   -0.000151  -0.000600   0.000480   0.122364  -0.096441
   37  BR 3 ZZ    0.000503   0.000872  -0.000710  -0.082160   0.052801
   38  BR 3 XY    0.000306   0.000304  -0.000322  -0.158859   0.097443
   39  BR 3 XZ   -0.000221  -0.000559   0.000434  -0.058837   0.038163
   40  BR 3 YZ    0.000559   0.000866  -0.000751   0.101909  -0.085786
   41  BR 4  S   -0.000022   0.000038   0.000031  -0.000241   0.000170
   42  BR 4  S   -0.000072   0.000125   0.000122  -0.001041   0.000976
   43  BR 4  X    0.066445  -0.025109  -0.039319   0.000360  -0.000381
   44  BR 4  Y    0.025109  -0.095439  -0.068102   0.000623  -0.000595
   45  BR 4  Z    0.155199  -0.268812  -0.222222  -0.000231   0.000230
   46  BR 4  S    0.000282  -0.000489  -0.000276   0.003293  -0.000225
   47  BR 4  X   -0.174286   0.065861   0.103130  -0.000888   0.001150
   48  BR 4  Y   -0.065861   0.250336   0.178626  -0.001539   0.001619
   49  BR 4  Z   -0.407087   0.705096   0.582893   0.000603  -0.000630
   50  BR 4  S    0.000280  -0.000484   0.000004  -0.001199   0.007406
   51  BR 4  X   -0.002886   0.001105   0.001771  -0.002044  -0.002011
   52  BR 4  Y   -0.001105   0.004162   0.003067  -0.003539   0.000400
   53  BR 4  Z   -0.006744   0.011681   0.009542   0.000689  -0.000068
   54  BR 4  S    0.000594  -0.001028   0.000476  -0.019667   0.021319
   55  BR 4  X    0.001130  -0.000550  -0.000332  -0.008047   0.007601
   56  BR 4  Y    0.000550  -0.001765  -0.000575  -0.013938   0.012716
   57  BR 4  Z    0.002029  -0.003515  -0.002408   0.005044  -0.005387
   58  BR 4 XX   -0.000328   0.000134   0.000228  -0.069241   0.081570
   59  BR 4 YY   -0.000216   0.000807   0.000599   0.223879  -0.177904
   60  BR 4 ZZ    0.000605  -0.001048  -0.000835  -0.153543   0.097301
   61  BR 4 XY   -0.000388   0.000384   0.000371   0.293120  -0.179472
   62  BR 4 XZ   -0.000278   0.000682   0.000521  -0.108506   0.070242
   63  BR 4 YZ   -0.000682   0.001066   0.000902  -0.187938   0.158224
   64  BR 4 XX   -0.000237   0.000070   0.000159  -0.036495   0.044170
   65  BR 4 YY   -0.000151   0.000600   0.000480   0.122364  -0.096441
   66  BR 4 ZZ    0.000503  -0.000872  -0.000710  -0.082160   0.052801
   67  BR 4 XY   -0.000306   0.000304   0.000322   0.158859  -0.097443
   68  BR 4 XZ   -0.000221   0.000559   0.000434  -0.058837   0.038163
   69  BR 4 YZ   -0.000559   0.000866   0.000751  -0.101909   0.085786
   70  BR 5  S    0.000044   0.000000   0.000031  -0.000241  -0.000340
   71  BR 5  S    0.000144   0.000000   0.000122  -0.001041  -0.001953
   72  BR 5  X    0.109935   0.000000   0.078638  -0.000719  -0.001412
   73  BR 5  Y    0.000000  -0.051948   0.000000   0.000000   0.000000
   74  BR 5  Z   -0.310397   0.000000  -0.222222  -0.000231  -0.000461
   75  BR 5  S   -0.000564   0.000000  -0.000276   0.003293   0.000450
   76  BR 5  X   -0.288361   0.000000  -0.206260   0.001777   0.003955
   77  BR 5  Y    0.000000   0.136261   0.000000   0.000000   0.000000
   78  BR 5  Z    0.814174   0.000000   0.582893   0.000603   0.001260
   79  BR 5  S   -0.000559   0.000000   0.000004  -0.001199  -0.014813
   80  BR 5  X   -0.004800   0.000000  -0.003542   0.004087  -0.001318
   81  BR 5  Y    0.000000   0.002249   0.000000   0.000000   0.000000
   82  BR 5  Z    0.013489   0.000000   0.009542   0.000689   0.000135
   83  BR 5  S   -0.001188   0.000000   0.000476  -0.019667  -0.042638
   84  BR 5  X    0.002083   0.000000   0.000664   0.016094   0.029626
   85  BR 5  Y    0.000000  -0.000812   0.000000   0.000000   0.000000
   86  BR 5  Z   -0.004059   0.000000  -0.002408   0.005044   0.010774
   87  BR 5 XX    0.001070   0.000000   0.000785   0.370439   0.495279
   88  BR 5 YY    0.000017   0.000000   0.000042  -0.215801  -0.302612
   89  BR 5 ZZ   -0.001210   0.000000  -0.000835  -0.153543  -0.194602
   90  BR 5 XY    0.000000  -0.000289   0.000000   0.000000   0.000000
   91  BR 5 XZ   -0.001460   0.000000  -0.001041   0.217012   0.344294
   92  BR 5 YZ    0.000000  -0.000116   0.000000   0.000000   0.000000
   93  BR 5 XX    0.000804   0.000000   0.000641   0.201793   0.268742
   94  BR 5 YY   -0.000029   0.000000  -0.000002  -0.115924  -0.164198
   95  BR 5 ZZ   -0.001007   0.000000  -0.000710  -0.082160  -0.105601
   96  BR 5 XY    0.000000  -0.000226   0.000000   0.000000   0.000000
   97  BR 5 XZ   -0.001189   0.000000  -0.000867   0.117674   0.186749
   98  BR 5 YZ    0.000000  -0.000102   0.000000   0.000000   0.000000

                     31         32         33         34         35
                   -2.6103    -2.6058    -2.6053    -2.6053    -2.6049
                     E          A1         E          E          A2  
    1  H  1  S    0.000000  -0.005999   0.000000   0.000000   0.000000
    2  H  1  S    0.000000  -0.028983   0.000000   0.000000   0.000000
    3  C  2  S    0.000000  -0.000430   0.000000   0.000000   0.000000
    4  C  2  S    0.000000  -0.001588   0.000000   0.000000   0.000000
    5  C  2  X    0.000000   0.000000  -0.006168   0.000000   0.000000
    6  C  2  Y   -0.003238   0.000000   0.000000   0.006168   0.000000
    7  C  2  Z    0.000000   0.007257   0.000000   0.000000   0.000000
    8  C  2  S    0.000000   0.017020   0.000000   0.000000   0.000000
    9  C  2  X    0.000000   0.000000   0.025677   0.000000   0.000000
   10  C  2  Y   -0.041712   0.000000   0.000000  -0.025677   0.000000
   11  C  2  Z    0.000000  -0.045397   0.000000   0.000000   0.000000
   12  BR 3  S    0.000294  -0.000014  -0.000018  -0.000031   0.000000
   13  BR 3  S    0.001691  -0.000173  -0.000221  -0.000382   0.000000
   14  BR 3  X   -0.000595  -0.000025   0.001071  -0.000240   0.000990
   15  BR 3  Y    0.001068   0.000043   0.000240  -0.000794   0.000572
   16  BR 3  Z    0.000399  -0.000865   0.000207   0.000359   0.000000
   17  BR 3  S   -0.000390  -0.000933  -0.001157  -0.002004   0.000000
   18  BR 3  X    0.001619   0.000004  -0.003070   0.000541  -0.002905
   19  BR 3  Y   -0.003020  -0.000006  -0.000541   0.002445  -0.001677
   20  BR 3  Z   -0.001091   0.002393  -0.000571  -0.000989   0.000000
   21  BR 3  S    0.012828  -0.003365  -0.004313  -0.007470   0.000000
   22  BR 3  X    0.000400   0.001417   0.002473   0.002748   0.003333
   23  BR 3  Y    0.001549  -0.002454  -0.002748  -0.005646   0.001924
   24  BR 3  Z   -0.000117  -0.000416  -0.000126  -0.000218   0.000000
   25  BR 3  S    0.036925   0.001860   0.001315   0.002278   0.000000
   26  BR 3  X    0.012716   0.001260  -0.004258   0.001670  -0.005172
   27  BR 3  Y   -0.022284  -0.002182  -0.001670   0.002330  -0.002986
   28  BR 3  Z   -0.009331   0.005032  -0.002657  -0.004602   0.000000
   29  BR 3 XX    0.072000  -0.061927   0.355246  -0.179374   0.305149
   30  BR 3 YY   -0.238855  -0.165154  -0.283973   0.302821  -0.305149
   31  BR 3 ZZ    0.168531   0.226172  -0.072399  -0.125398   0.000000
   32  BR 3 XY    0.357044   0.103226  -0.278395   0.047590  -0.203433
   33  BR 3 XZ    0.158224  -0.173367  -0.103055   0.145838  -0.123641
   34  BR 3 YZ   -0.252943   0.300280  -0.145838  -0.065344  -0.071384
   35  BR 3 XX    0.039119  -0.033949   0.192138  -0.098099   0.165540
   36  BR 3 YY   -0.129657  -0.089800  -0.154348   0.163553  -0.165540
   37  BR 3 ZZ    0.091453   0.122167  -0.039766  -0.068876   0.000000
   38  BR 3 XY    0.193699   0.055851  -0.151065   0.025609  -0.110360
   39  BR 3 XZ    0.085786  -0.093991  -0.055919   0.078998  -0.067073
   40  BR 3 YZ   -0.137220   0.162797  -0.078998  -0.035300  -0.038725
   41  BR 4  S   -0.000294  -0.000014  -0.000018   0.000031   0.000000
   42  BR 4  S   -0.001691  -0.000173  -0.000221   0.000382   0.000000
   43  BR 4  X    0.000595  -0.000025   0.001071   0.000240  -0.000990
   44  BR 4  Y    0.001068  -0.000043  -0.000240  -0.000794   0.000572
   45  BR 4  Z   -0.000399  -0.000865   0.000207  -0.000359   0.000000
   46  BR 4  S    0.000390  -0.000933  -0.001157   0.002004   0.000000
   47  BR 4  X   -0.001619   0.000004  -0.003070  -0.000541   0.002905
   48  BR 4  Y   -0.003020   0.000006   0.000541   0.002445  -0.001677
   49  BR 4  Z    0.001091   0.002393  -0.000571   0.000989   0.000000
   50  BR 4  S   -0.012828  -0.003365  -0.004313   0.007470   0.000000
   51  BR 4  X   -0.000400   0.001417   0.002473  -0.002748  -0.003333
   52  BR 4  Y    0.001549   0.002454   0.002748  -0.005646   0.001924
   53  BR 4  Z    0.000117  -0.000416  -0.000126   0.000218   0.000000
   54  BR 4  S   -0.036925   0.001860   0.001315  -0.002278   0.000000
   55  BR 4  X   -0.012716   0.001260  -0.004258  -0.001670   0.005172
   56  BR 4  Y   -0.022284   0.002182   0.001670   0.002330  -0.002986
   57  BR 4  Z    0.009331   0.005032  -0.002657   0.004602   0.000000
   58  BR 4 XX   -0.072000  -0.061927   0.355246   0.179374  -0.305149
   59  BR 4 YY    0.238855  -0.165154  -0.283973  -0.302821   0.305149
   60  BR 4 ZZ   -0.168531   0.226172  -0.072399   0.125398   0.000000
   61  BR 4 XY    0.357044  -0.103226   0.278395   0.047590  -0.203433
   62  BR 4 XZ   -0.158224  -0.173367  -0.103055  -0.145838   0.123641
   63  BR 4 YZ   -0.252943  -0.300280   0.145838  -0.065344  -0.071384
   64  BR 4 XX   -0.039119  -0.033949   0.192138   0.098099  -0.165540
   65  BR 4 YY    0.129657  -0.089800  -0.154348  -0.163553   0.165540
   66  BR 4 ZZ   -0.091453   0.122167  -0.039766   0.068876   0.000000
   67  BR 4 XY    0.193699  -0.055851   0.151065   0.025609  -0.110360
   68  BR 4 XZ   -0.085786  -0.093991  -0.055919  -0.078998   0.067073
   69  BR 4 YZ   -0.137220  -0.162797   0.078998  -0.035300  -0.038725
   70  BR 5  S    0.000000  -0.000014   0.000036   0.000000   0.000000
   71  BR 5  S    0.000000  -0.000173   0.000442   0.000000   0.000000
   72  BR 5  X    0.000000   0.000050   0.000655   0.000000   0.000000
   73  BR 5  Y    0.000037   0.000000   0.000000  -0.001210  -0.001143
   74  BR 5  Z    0.000000  -0.000865  -0.000415   0.000000   0.000000
   75  BR 5  S    0.000000  -0.000933   0.002314   0.000000   0.000000
   76  BR 5  X    0.000000  -0.000007  -0.002132   0.000000   0.000000
   77  BR 5  Y   -0.000216   0.000000   0.000000   0.003382   0.003354
   78  BR 5  Z    0.000000   0.002393   0.001142   0.000000   0.000000
   79  BR 5  S    0.000000  -0.003365   0.008626   0.000000   0.000000
   80  BR 5  X    0.000000  -0.002833   0.007232   0.000000   0.000000
   81  BR 5  Y    0.002242   0.000000   0.000000  -0.000887  -0.003849
   82  BR 5  Z    0.000000  -0.000416   0.000251   0.000000   0.000000
   83  BR 5  S    0.000000   0.001860  -0.002630   0.000000   0.000000
   84  BR 5  X    0.000000  -0.002520  -0.001365   0.000000   0.000000
   85  BR 5  Y   -0.000259   0.000000   0.000000   0.005223   0.005972
   86  BR 5  Z    0.000000   0.005032   0.005314   0.000000   0.000000
   87  BR 5 XX    0.000000  -0.216767  -0.169256   0.000000   0.000000
   88  BR 5 YY    0.000000  -0.010314   0.026711   0.000000   0.000000
   89  BR 5 ZZ    0.000000   0.226172   0.144797   0.000000   0.000000
   90  BR 5 XY    0.046189   0.000000   0.000000   0.529785   0.406866
   91  BR 5 XZ    0.000000   0.346733   0.149544   0.000000   0.000000
   92  BR 5 YZ    0.021109   0.000000   0.000000   0.187255   0.142768
   93  BR 5 XX    0.000000  -0.117725  -0.091144   0.000000   0.000000
   94  BR 5 YY    0.000000  -0.006023   0.015564   0.000000   0.000000
   95  BR 5 ZZ    0.000000   0.122167   0.079531   0.000000   0.000000
   96  BR 5 XY    0.024923   0.000000   0.000000   0.287261   0.220720
   97  BR 5 XZ    0.000000   0.187981   0.080909   0.000000   0.000000
   98  BR 5 YZ    0.011366   0.000000   0.000000   0.101528   0.077450

                     36         37         38         39         40
                   -2.6048    -2.6048    -2.5918    -2.5918    -2.5917
                     E          E          E          E          A1  
    1  H  1  S    0.000000   0.000000   0.000000   0.000000   0.000978
    2  H  1  S    0.000000   0.000000   0.000000   0.000000  -0.007199
    3  C  2  S    0.000000   0.000000   0.000000   0.000000   0.000001
    4  C  2  S    0.000000   0.000000   0.000000   0.000000   0.000057
    5  C  2  X    0.000116   0.000000   0.000785   0.000000   0.000000
    6  C  2  Y    0.000000   0.000116   0.000000   0.000785   0.000000
    7  C  2  Z    0.000000   0.000000   0.000000   0.000000   0.000754
    8  C  2  S    0.000000   0.000000   0.000000   0.000000   0.000589
    9  C  2  X   -0.000915   0.000000  -0.005051   0.000000   0.000000
   10  C  2  Y    0.000000  -0.000915   0.000000  -0.005051   0.000000
   11  C  2  Z    0.000000   0.000000   0.000000   0.000000  -0.004603
   12  BR 3  S    0.000001  -0.000002   0.000003  -0.000006  -0.000002
   13  BR 3  S   -0.000013   0.000023  -0.000090   0.000156   0.000040
   14  BR 3  X   -0.000261  -0.000376   0.000006  -0.000036   0.000010
   15  BR 3  Y   -0.000376   0.000173  -0.000036   0.000048  -0.000018
   16  BR 3  Z    0.000641  -0.001111   0.000042  -0.000072   0.000089
   17  BR 3  S   -0.000106   0.000184  -0.000733   0.001270   0.000376
   18  BR 3  X    0.000710   0.001056  -0.000052   0.000113  -0.000029
   19  BR 3  Y    0.001056  -0.000510   0.000113  -0.000182   0.000050
   20  BR 3  Z   -0.001836   0.003180  -0.000138   0.000239  -0.000284
   21  BR 3  S   -0.000385   0.000668  -0.002369   0.004104   0.001110
   22  BR 3  X    0.000325  -0.000286   0.000764  -0.000291  -0.000012
   23  BR 3  Y   -0.000286   0.000655  -0.000291   0.001100   0.000020
   24  BR 3  Z    0.001175  -0.002035   0.000456  -0.000790   0.000708
   25  BR 3  S   -0.000890   0.001542  -0.004604   0.007975   0.001999
   26  BR 3  X   -0.001391   0.000184  -0.002501   0.002379   0.000621
   27  BR 3  Y    0.000184  -0.001603   0.002379  -0.005248  -0.001076
   28  BR 3  Z   -0.000898   0.001555  -0.000080   0.000138  -0.001008
   29  BR 3 XX   -0.102346  -0.149084   0.191674  -0.046015   0.270003
   30  BR 3 YY    0.255806  -0.116715  -0.109805  -0.095786   0.063461
   31  BR 3 ZZ   -0.153526   0.265915  -0.082399   0.142720  -0.333186
   32  BR 3 XY    0.018688   0.185200  -0.028735  -0.140878   0.206542
   33  BR 3 XZ    0.168288  -0.157042   0.387023   0.261601  -0.067833
   34  BR 3 YZ   -0.157042   0.349625   0.261601   0.084952   0.117491
   35  BR 3 XX   -0.055550  -0.080829   0.103416  -0.024527   0.146040
   36  BR 3 YY    0.138741  -0.063263  -0.059580  -0.051400   0.034423
   37  BR 3 ZZ   -0.083307   0.144291  -0.044724   0.077465  -0.179995
   38  BR 3 XY    0.010141   0.100464  -0.015515  -0.076191   0.111618
   39  BR 3 XZ    0.091292  -0.085199   0.209187   0.141372  -0.036661
   40  BR 3 YZ   -0.085199   0.189671   0.141372   0.045945   0.063499
   41  BR 4  S    0.000001   0.000002   0.000003   0.000006  -0.000002
   42  BR 4  S   -0.000013  -0.000023  -0.000090  -0.000156   0.000040
   43  BR 4  X   -0.000261   0.000376   0.000006   0.000036   0.000010
   44  BR 4  Y    0.000376   0.000173   0.000036   0.000048   0.000018
   45  BR 4  Z    0.000641   0.001111   0.000042   0.000072   0.000089
   46  BR 4  S   -0.000106  -0.000184  -0.000733  -0.001270   0.000376
   47  BR 4  X    0.000710  -0.001056  -0.000052  -0.000113  -0.000029
   48  BR 4  Y   -0.001056  -0.000510  -0.000113  -0.000182  -0.000050
   49  BR 4  Z   -0.001836  -0.003180  -0.000138  -0.000239  -0.000284
   50  BR 4  S   -0.000385  -0.000668  -0.002369  -0.004104   0.001110
   51  BR 4  X    0.000325   0.000286   0.000764   0.000291  -0.000012
   52  BR 4  Y    0.000286   0.000655   0.000291   0.001100  -0.000020
   53  BR 4  Z    0.001175   0.002035   0.000456   0.000790   0.000708
   54  BR 4  S   -0.000890  -0.001542  -0.004604  -0.007975   0.001999
   55  BR 4  X   -0.001391  -0.000184  -0.002501  -0.002379   0.000621
   56  BR 4  Y   -0.000184  -0.001603  -0.002379  -0.005248   0.001076
   57  BR 4  Z   -0.000898  -0.001555  -0.000080  -0.000138  -0.001008
   58  BR 4 XX   -0.102346   0.149084   0.191674   0.046015   0.270003
   59  BR 4 YY    0.255806   0.116715  -0.109805   0.095786   0.063461
   60  BR 4 ZZ   -0.153526  -0.265915  -0.082399  -0.142720  -0.333186
   61  BR 4 XY   -0.018688   0.185200   0.028735  -0.140878  -0.206542
   62  BR 4 XZ    0.168288   0.157042   0.387023  -0.261601  -0.067833
   63  BR 4 YZ    0.157042   0.349625  -0.261601   0.084952  -0.117491
   64  BR 4 XX   -0.055550   0.080829   0.103416   0.024527   0.146040
   65  BR 4 YY    0.138741   0.063263  -0.059580   0.051400   0.034423
   66  BR 4 ZZ   -0.083307  -0.144291  -0.044724  -0.077465  -0.179995
   67  BR 4 XY   -0.010141   0.100464   0.015515  -0.076191  -0.111618
   68  BR 4 XZ    0.091292   0.085199   0.209187  -0.141372  -0.036661
   69  BR 4 YZ    0.085199   0.189671  -0.141372   0.045945  -0.063499
   70  BR 5  S   -0.000002   0.000000  -0.000007   0.000000  -0.000002
   71  BR 5  S    0.000026   0.000000   0.000180   0.000000   0.000040
   72  BR 5  X    0.000390   0.000000   0.000069   0.000000  -0.000021
   73  BR 5  Y    0.000000  -0.000478   0.000000  -0.000015   0.000000
   74  BR 5  Z   -0.001283   0.000000  -0.000083   0.000000   0.000089
   75  BR 5  S    0.000213   0.000000   0.001466   0.000000   0.000376
   76  BR 5  X   -0.001120   0.000000  -0.000247   0.000000   0.000058
   77  BR 5  Y    0.000000   0.001320   0.000000   0.000013   0.000000
   78  BR 5  Z    0.003672   0.000000   0.000276   0.000000  -0.000284
   79  BR 5  S    0.000771   0.000000   0.004738   0.000000   0.001110
   80  BR 5  X    0.000820   0.000000   0.001268   0.000000   0.000023
   81  BR 5  Y    0.000000   0.000160   0.000000   0.000596   0.000000
   82  BR 5  Z   -0.002350   0.000000  -0.000912   0.000000   0.000708
   83  BR 5  S    0.001781   0.000000   0.009208   0.000000   0.001999
   84  BR 5  X   -0.001709   0.000000  -0.006622   0.000000  -0.001242
   85  BR 5  Y    0.000000  -0.001284   0.000000  -0.001128   0.000000
   86  BR 5  Z    0.001796   0.000000   0.000159   0.000000  -0.001008
   87  BR 5 XX   -0.304503   0.000000   0.025768   0.000000  -0.039810
   88  BR 5 YY   -0.002416   0.000000  -0.189505   0.000000   0.373274
   89  BR 5 ZZ    0.307052   0.000000   0.164799   0.000000  -0.333186
   90  BR 5 XY    0.000000   0.217569   0.000000  -0.190649   0.000000
[...]
   69  BR 4 YZ   -0.000267  -0.001297  -0.001376   0.000131   0.001184
   70  BR 5  S   -0.011062   0.012694   0.000000   0.002363   0.001951
   71  BR 5  S   -0.069889   0.082302   0.000000   0.017036   0.005896
   72  BR 5  X   -0.001277  -0.036796   0.000000  -0.035211  -0.058570
   73  BR 5  Y    0.000000   0.000000  -0.043757   0.000000   0.000000
   74  BR 5  Z    0.014528   0.004061   0.000000   0.046724  -0.034217
   75  BR 5  S    0.006483   0.001130   0.000000   0.009185  -0.024716
   76  BR 5  X    0.004155   0.126465   0.000000   0.121021   0.201750
   77  BR 5  Y    0.000000   0.000000   0.150315   0.000000   0.000000
   78  BR 5  Z   -0.049802  -0.014097   0.000000  -0.160915   0.117890
   79  BR 5  S   -0.911959   1.096583   0.000000   0.249133   0.029407
   80  BR 5  X   -0.010794  -0.415128   0.000000  -0.398739  -0.691675
   81  BR 5  Y    0.000000   0.000000  -0.494772   0.000000   0.000000
   82  BR 5  Z    0.158948   0.055336   0.000000   0.544320  -0.403827
   83  BR 5  S   -1.081493   1.331206   0.000000   0.269555  -0.280671
   84  BR 5  X    0.190666   0.201149   0.000000   0.411227   1.077679
   85  BR 5  Y    0.000000   0.000000   0.494565   0.000000   0.000000
   86  BR 5  Z   -0.125722  -0.167380   0.000000  -0.546919   0.548626
   87  BR 5 XX   -0.037389   0.038451   0.000000   0.004531  -0.013711
   88  BR 5 YY   -0.014178   0.020323   0.000000   0.007670   0.008865
   89  BR 5 ZZ   -0.017093   0.025062   0.000000   0.009445   0.005118
   90  BR 5 XY    0.000000   0.000000  -0.003350   0.000000   0.000000
   91  BR 5 XZ   -0.001170   0.008964   0.000000  -0.001354  -0.009388
   92  BR 5 YZ    0.000000   0.000000  -0.002635   0.000000   0.000000
   93  BR 5 XX   -0.025685   0.033128   0.000000   0.011211   0.003013
   94  BR 5 YY   -0.030607   0.037093   0.000000   0.010784  -0.001755
   95  BR 5 ZZ   -0.029634   0.035871   0.000000   0.009737  -0.000682
   96  BR 5 XY    0.000000   0.000000   0.001018   0.000000   0.000000
   97  BR 5 XZ    0.000308  -0.002124   0.000000  -0.000151   0.002130
   98  BR 5 YZ    0.000000   0.000000   0.000870   0.000000   0.000000

                     66
                    0.3050
                     E   
    1  H  1  S    0.000000
    2  H  1  S    0.000000
    3  C  2  S    0.000000
    4  C  2  S    0.000000
    5  C  2  X    0.000000
    6  C  2  Y   -0.188846
    7  C  2  Z    0.000000
    8  C  2  S    0.000000
    9  C  2  X    0.000000
   10  C  2  Y    0.502316
   11  C  2  Z    0.000000
   12  BR 3  S    0.001690
   13  BR 3  S    0.005106
   14  BR 3  X    0.046746
   15  BR 3  Y   -0.031581
   16  BR 3  Z   -0.029633
   17  BR 3  S   -0.021405
   18  BR 3  X   -0.160845
   19  BR 3  Y    0.108886
   20  BR 3  Z    0.102096
   21  BR 3  S    0.025467
   22  BR 3  X    0.540228
   23  BR 3  Y   -0.379774
   24  BR 3  Z   -0.349724
   25  BR 3  S   -0.243068
   26  BR 3  X   -0.681166
   27  BR 3  Y    0.684408
   28  BR 3  Z    0.475124
   29  BR 3 XX    0.003598
   30  BR 3 YY   -0.007795
   31  BR 3 ZZ    0.004432
   32  BR 3 XY    0.009237
   33  BR 3 XZ    0.004981
   34  BR 3 YZ   -0.006512
   35  BR 3 XX   -0.000723
   36  BR 3 YY    0.001812
   37  BR 3 ZZ   -0.000591
   38  BR 3 XY   -0.001908
   39  BR 3 XZ   -0.001184
   40  BR 3 YZ    0.001446
   41  BR 4  S   -0.001690
   42  BR 4  S   -0.005106
   43  BR 4  X   -0.046746
   44  BR 4  Y   -0.031581
   45  BR 4  Z    0.029633
   46  BR 4  S    0.021405
   47  BR 4  X    0.160845
   48  BR 4  Y    0.108886
   49  BR 4  Z   -0.102096
   50  BR 4  S   -0.025467
   51  BR 4  X   -0.540228
   52  BR 4  Y   -0.379774
   53  BR 4  Z    0.349724
   54  BR 4  S    0.243068
   55  BR 4  X    0.681166
   56  BR 4  Y    0.684408
   57  BR 4  Z   -0.475124
   58  BR 4 XX   -0.003598
   59  BR 4 YY    0.007795
   60  BR 4 ZZ   -0.004432
   61  BR 4 XY    0.009237
   62  BR 4 XZ   -0.004981
   63  BR 4 YZ   -0.006512
   64  BR 4 XX    0.000723
   65  BR 4 YY   -0.001812
   66  BR 4 ZZ    0.000591
   67  BR 4 XY   -0.001908
   68  BR 4 XZ    0.001184
   69  BR 4 YZ    0.001446
   70  BR 5  S    0.000000
   71  BR 5  S    0.000000
   72  BR 5  X    0.000000
   73  BR 5  Y    0.049385
   74  BR 5  Z    0.000000
   75  BR 5  S    0.000000
   76  BR 5  X    0.000000
   77  BR 5  Y   -0.169706
   78  BR 5  Z    0.000000
   79  BR 5  S    0.000000
   80  BR 5  X    0.000000
   81  BR 5  Y    0.555929
   82  BR 5  Z    0.000000
   83  BR 5  S    0.000000
   84  BR 5  X    0.000000
   85  BR 5  Y   -0.495407
   86  BR 5  Z    0.000000
   87  BR 5 XX    0.000000
   88  BR 5 YY    0.000000
   89  BR 5 ZZ    0.000000
   90  BR 5 XY   -0.002155
   91  BR 5 XZ    0.000000
   92  BR 5 YZ    0.002116
   93  BR 5 XX    0.000000
   94  BR 5 YY    0.000000
   95  BR 5 ZZ    0.000000
   96  BR 5 XY    0.000628
   97  BR 5 XZ    0.000000
   98  BR 5 YZ   -0.000605

     ---------------------------------------------------------------------
     PROPERTIES FOR THE B3LYP    DFT FUNCTIONAL (RHF  TYPE) DENSITY MATRIX
     ---------------------------------------------------------------------

          -----------------
          ENERGY COMPONENTS
          -----------------

         WAVEFUNCTION NORMALIZATION =       1.0000000000

                ONE ELECTRON ENERGY =  -12357.4764836837
                TWO ELECTRON ENERGY =    3816.9331241141
           NUCLEAR REPULSION ENERGY =     780.8737093302
                                      ------------------
                       TOTAL ENERGY =   -7759.6696502394

 ELECTRON-ELECTRON POTENTIAL ENERGY =    3816.9331241141
  NUCLEUS-ELECTRON POTENTIAL ENERGY =  -20099.1759523172
   NUCLEUS-NUCLEUS POTENTIAL ENERGY =     780.8737093302
                                      ------------------
             TOTAL POTENTIAL ENERGY =  -15501.3691188729
               TOTAL KINETIC ENERGY =    7741.6994686335
                 VIRIAL RATIO (V/T) =       2.0023212192

          ---------------------------------------
          MULLIKEN AND LOWDIN POPULATION ANALYSES
          ---------------------------------------

     MULLIKEN ATOMIC POPULATION IN EACH MOLECULAR ORBITAL

                      1          2          3          4          5

                  2.000000   2.000000   2.000000   2.000000   2.000000

    1             0.000000   0.000000   0.000000   0.000000   0.000000
    2             0.000000   0.000000   0.000000   0.000000   0.000000
    3             0.666667   0.333333   1.000000   0.333333   1.000000
    4             0.666667   0.333333   1.000000   0.333333   1.000000
    5             0.666667   1.333333   0.000000   1.333334   0.000000

                      6          7          8          9         10

                  2.000000   2.000000   2.000000   2.000000   2.000000

    1             0.000000  -0.000001   0.000000   0.000000   0.000000
    2             0.000001   0.000005   0.000002   0.000002   0.000000
    3             0.666666   0.666665   0.333333   0.999999   0.666667
    4             0.666666   0.666665   0.333333   0.999999   0.666667
    5             0.666666   0.666665   1.333332   0.000000   0.666667

                     11         12         13         14         15

                  2.000000   2.000000   2.000000   2.000000   2.000000

    1             0.000000   0.000000   0.000000   0.000000   0.000000
    2             0.000001   0.000001   0.000000   0.000000   0.000001
    3             0.999991   0.333342   0.333342   0.999992   0.666667
    4             0.999991   0.333342   0.333342   0.999992   0.666667
    5             0.000017   1.333316   1.333316   0.000017   0.666667

                     16         17         18         19         20

                  2.000000   2.000000   2.000000   2.000000   2.000000

    1             0.000969   0.000000   0.000000   0.000005   0.000059
    2             1.997449  -0.000018  -0.000018  -0.000036  -0.000310
    3             0.000528   0.333337   1.000009   0.666677   0.666750
    4             0.000528   0.333337   1.000009   0.666677   0.666750
    5             0.000528   1.333345   0.000001   0.666677   0.666750

                     21         22         23         24         25

                  2.000000   2.000000   2.000000   2.000000   2.000000

    1             0.000000   0.000000   0.000000   0.000000   0.000000
    2            -0.000126  -0.000126   0.000000  -0.000040  -0.000040
    3             0.333359   1.000059   0.666667   1.000004   0.333356
    4             0.333359   1.000059   0.666667   1.000004   0.333356
    5             1.333409   0.000009   0.666667   0.000031   1.333329

                     26         27         28         29         30

                  2.000000   2.000000   2.000000   2.000000   2.000000

    1             0.000000   0.000000   0.000026  -0.000072   0.000000
    2            -0.000002  -0.000002  -0.000059   0.004673   0.002483
    3             0.333339   0.999995   0.666677   0.665133   0.337716
    4             0.333339   0.999995   0.666677   0.665133   0.337716
    5             1.333323   0.000011   0.666677   0.665133   1.322084

                     31         32         33         34         35

                  2.000000   2.000000   2.000000   2.000000   2.000000

    1             0.000000  -0.000436   0.000000   0.000000   0.000000
    2             0.002483   0.002110   0.000875   0.000875   0.000000
    3             0.993962   0.666109   0.927485   0.405265   0.666667
    4             0.993962   0.666109   0.927485   0.405265   0.666667
    5             0.009593   0.666109   0.144156   1.188594   0.666667

                     36         37         38         39         40

                  2.000000   2.000000   2.000000   2.000000   2.000000

    1             0.000000   0.000000   0.000000   0.000000   0.000023
    2             0.000000   0.000000   0.000002   0.000002  -0.000005
    3             0.400635   0.932698   0.846143   0.487189   0.666661
    4             0.400635   0.932698   0.846143   0.487189   0.666661
    5             1.198729   0.134604   0.307712   1.025620   0.666661

                     41         42         43         44         45

                  2.000000   2.000000   2.000000   2.000000   2.000000

    1             0.000000   0.000000   0.000000   0.039474   0.000000
    2             0.000001   0.000001   0.000000   0.851635   0.160588
    3             0.487163   0.846170   0.666667   0.369630   0.307019
    4             0.487163   0.846170   0.666667   0.369630   0.307019
    5             1.025674   0.307659   0.666667   0.369630   1.225374

                     46         47         48         49         50

                  2.000000   2.000000   2.000000   2.000000   2.000000

    1             0.000000   0.276913   0.293582   0.000000   0.000000
    2             0.160588   0.821067   1.029231   0.799417   0.799417
    3             0.919256   0.300674   0.225729   0.263282   0.537107
    4             0.919256   0.300674   0.225729   0.263282   0.537107
    5             0.000900   0.300674   0.225729   0.674020   0.126369

                     51         52         53         54         55

                  2.000000   2.000000   2.000000   2.000000   2.000000

    1             0.000000   0.000000   0.104833   0.000000   0.000000
    2             0.011739   0.011739   0.062514   0.007673   0.007673
    3             0.761368   0.564139   0.610884   0.482576   0.845642
    4             0.761368   0.564139   0.610884   0.482576   0.845642
    5             0.465524   0.859983   0.610884   1.027175   0.301043

                     56

                  2.000000

    1             0.000000
    2             0.000000
    3             0.666667
    4             0.666667
    5             0.666667

               ----- POPULATIONS IN EACH AO -----
                             MULLIKEN      LOWDIN
              1  H  1  S      0.52524     0.51089
              2  H  1  S      0.19013     0.32251
              3  C  2  S      1.99700     1.98902
              4  C  2  S      0.66703     0.63445
              5  C  2  X      0.54995     0.51501
              6  C  2  Y      0.54995     0.51501
              7  C  2  Z      0.74975     0.68276
              8  C  2  S      0.92370     0.56124
              9  C  2  X      0.43264     0.50868
             10  C  2  Y      0.43264     0.50853
             11  C  2  Z      0.43080     0.49443
             12  BR 3  S      1.99822     1.99777
             13  BR 3  S      1.98662     1.91028
             14  BR 3  X      1.99977     1.99830
             15  BR 3  Y      1.99971     1.99781
             16  BR 3  Z      1.99979     1.99849
             17  BR 3  S      1.93481     0.78459
             18  BR 3  X      1.99479     1.96795
             19  BR 3  Y      1.99316     1.95672
             20  BR 3  Z      1.99542     1.97203
             21  BR 3  S      1.61012     1.06038
             22  BR 3  X      1.28701     1.18622
             23  BR 3  Y      1.04759     0.96055
             24  BR 3  Z      1.37159     1.26441
             25  BR 3  S      0.32240     0.57658
             26  BR 3  X      0.44731     0.60391
             27  BR 3  Y      0.23646     0.44671
             28  BR 3  Z      0.52915     0.66876
             29  BR 3 XX      0.95204     1.25395
             30  BR 3 YY      0.95065     1.25277
             31  BR 3 ZZ      0.95260     1.25424
             32  BR 3 XY      1.39328     1.34897
             33  BR 3 XZ      1.39505     1.35082
             34  BR 3 YZ      1.39383     1.34959
             35  BR 3 XX      0.41381     0.60221
             36  BR 3 YY      0.41619     0.60372
             37  BR 3 ZZ      0.41308     0.60169
             38  BR 3 XY      0.60575     0.65064
             39  BR 3 XZ      0.60469     0.64905
             40  BR 3 YZ      0.60552     0.65009
             41  BR 4  S      1.99822     1.99777
             42  BR 4  S      1.98662     1.91028
             43  BR 4  X      1.99977     1.99830
             44  BR 4  Y      1.99971     1.99781
             45  BR 4  Z      1.99979     1.99849
             46  BR 4  S      1.93481     0.78459
             47  BR 4  X      1.99479     1.96795
             48  BR 4  Y      1.99316     1.95672
             49  BR 4  Z      1.99542     1.97203
             50  BR 4  S      1.61012     1.06038
             51  BR 4  X      1.28701     1.18622
             52  BR 4  Y      1.04759     0.96055
             53  BR 4  Z      1.37159     1.26441
             54  BR 4  S      0.32240     0.57658
             55  BR 4  X      0.44731     0.60391
             56  BR 4  Y      0.23646     0.44671
             57  BR 4  Z      0.52915     0.66876
             58  BR 4 XX      0.95204     1.25395
             59  BR 4 YY      0.95065     1.25277
             60  BR 4 ZZ      0.95260     1.25424
             61  BR 4 XY      1.39328     1.34897
             62  BR 4 XZ      1.39505     1.35082
             63  BR 4 YZ      1.39383     1.34959
             64  BR 4 XX      0.41381     0.60221
             65  BR 4 YY      0.41619     0.60372
             66  BR 4 ZZ      0.41308     0.60169
             67  BR 4 XY      0.60575     0.65064
             68  BR 4 XZ      0.60469     0.64905
             69  BR 4 YZ      0.60552     0.65009
             70  BR 5  S      1.99822     1.99777
             71  BR 5  S      1.98662     1.91028
             72  BR 5  X      1.99968     1.99756
             73  BR 5  Y      1.99979     1.99855
             74  BR 5  Z      1.99979     1.99849
             75  BR 5  S      1.93481     0.78459
             76  BR 5  X      1.99234     1.95110
             77  BR 5  Y      1.99561     1.97357
             78  BR 5  Z      1.99542     1.97203
             79  BR 5  S      1.61012     1.06038
             80  BR 5  X      0.92788     0.84770
             81  BR 5  Y      1.40672     1.29906
             82  BR 5  Z      1.37159     1.26441
             83  BR 5  S      0.32240     0.57659
             84  BR 5  X      0.13104     0.36810
             85  BR 5  Y      0.55273     0.68251
             86  BR 5  Z      0.52915     0.66876
             87  BR 5 XX      0.94975     1.25188
             88  BR 5 YY      0.95254     1.25425
             89  BR 5 ZZ      0.95260     1.25424
             90  BR 5 XY      1.39367     1.34957
             91  BR 5 XZ      1.39322     1.34898
             92  BR 5 YZ      1.39565     1.35144
             93  BR 5 XX      0.41728     0.60467
             94  BR 5 YY      0.41254     0.60165
             95  BR 5 ZZ      0.41308     0.60169
             96  BR 5 XY      0.60592     0.65016
             97  BR 5 XZ      0.60594     0.65061
             98  BR 5 YZ      0.60428     0.64853

          ----- MULLIKEN ATOMIC OVERLAP POPULATIONS -----
          (OFF-DIAGONAL ELEMENTS NEED TO BE MULTIPLIED BY 2)

             1           2           3           4           5

    1    0.5204019
    2    0.3356351   5.8447916
    3   -0.0468879   0.1843450  34.8275267
    4   -0.0468879   0.1843450  -0.0572977  34.8275267
    5   -0.0468879   0.1843450  -0.0572977  -0.0572977  34.8275267

          TOTAL MULLIKEN AND LOWDIN ATOMIC POPULATIONS
       ATOM         MULL.POP.    CHARGE          LOW.POP.     CHARGE
    1 H             0.715373    0.284627         0.833396    0.166604
    2 C             6.733462   -0.733462         6.409105   -0.409105
    3 BR           34.850388    0.149612        34.919188    0.080812
    4 BR           34.850388    0.149612        34.919188    0.080812
    5 BR           34.850388    0.149612        34.919122    0.080878

          -------------------------------
          BOND ORDER AND VALENCE ANALYSIS     BOND ORDER THRESHOLD=0.050
          -------------------------------

                   BOND                       BOND                       BOND
  ATOM PAIR DIST  ORDER      ATOM PAIR DIST  ORDER      ATOM PAIR DIST  ORDER
    1   2  1.083  0.869        2   3  1.993  0.938        2   4  1.993  0.938
    2   5  1.993  0.938

                       TOTAL       BONDED        FREE
      ATOM            VALENCE     VALENCE     VALENCE
    1 H                 0.850       0.850       0.000
    2 C                 3.682       3.682       0.000
    3 BR                1.021       1.021       0.000
    4 BR                1.021       1.021       0.000
    5 BR                1.021       1.021       0.000

          ---------------------
          ELECTROSTATIC MOMENTS
          ---------------------

 POINT   1           X           Y           Z (BOHR)    CHARGE
                 0.000000    0.000000   -0.032233        0.00 (A.U.)
         DX          DY          DZ         /D/  (DEBYE)
     0.000000    0.000000   -1.258770    1.258770
 ...... END OF PROPERTY EVALUATION ......
 STEP CPU TIME =     0.75 TOTAL CPU TIME =      217.8 (    3.6 MIN)
 TOTAL WALL CLOCK TIME=      223.3 SECONDS, CPU UTILIZATION IS  97.54%
  $VIB   
          IVIB=   0 IATOM=   0 ICOORD=   0 E=    -7759.6696502394
  0.000000000E+00 0.000000000E+00 1.946669502E-05 0.000000000E+00 0.000000000E+00
 -1.918871274E-05-4.710826883E-06 8.159391504E-06-9.266075986E-08-4.710826883E-06
 -8.159391507E-06-9.266075870E-08 9.421653764E-06 0.000000000E+00-9.266075986E-08
  7.630490977E-13-4.867642097E-13-1.258769738E+00
 ......END OF GEOMETRY SEARCH......
 STEP CPU TIME =     0.00 TOTAL CPU TIME =      217.8 (    3.6 MIN)
 TOTAL WALL CLOCK TIME=      223.3 SECONDS, CPU UTILIZATION IS  97.54%
     1113042  WORDS OF DYNAMIC MEMORY USED
 EXECUTION OF GAMESS TERMINATED NORMALLY Sun Jun 17 10:29:23 2007
 DDI: 262808 bytes (0.3 MB / 0 MWords) used by master data server.

 ----------------------------------------
 CPU timing information for all processes
 ========================================
 0: 216.796000 + 1.250000 = 218.046000
 1: 0.046000 + 0.000000 = 0.046000
 ----------------------------------------
 ddikick.x: exited gracefully.
----- accounting info -----
