 Entering Gaussian System, Link 0=g98
 Initial command:
 /apps/gaussian/g98/l1.exe /scratch/gauss.mars1-fe.5003.0/Gau-120766.inp -scrdir=/scratch/gauss.mars1-fe.5003.0/
 Entering Link 1 = /apps/gaussian/g98/l1.exe PID=    119302.
  
 Copyright (c) 1988,1990,1992,1993,1995,1998 Gaussian, Inc.
                  All Rights Reserved.
  
 This is part of the Gaussian(R) 98 program.  It is based on
 the Gaussian 94(TM) system (copyright 1995 Gaussian, Inc.),
 the Gaussian 92(TM) system (copyright 1992 Gaussian, Inc.),
 the Gaussian 90(TM) system (copyright 1990 Gaussian, Inc.),
 the Gaussian 88(TM) system (copyright 1988 Gaussian, Inc.),
 the Gaussian 86(TM) system (copyright 1986 Carnegie Mellon
 University), and the Gaussian 82(TM) system (copyright 1983
 Carnegie Mellon University). Gaussian is a federally registered
 trademark of Gaussian, Inc.
  
 This software contains proprietary and confidential information,
 including trade secrets, belonging to Gaussian, Inc.
  
 This software is provided under written license and may be
 used, copied, transmitted, or stored only in accord with that
 written license.
  
 The following legend is applicable only to US Government
 contracts under DFARS:
  
                    RESTRICTED RIGHTS LEGEND
  
 Use, duplication or disclosure by the US Government is subject
 to restrictions as set forth in subparagraph (c)(1)(ii) of the
 Rights in Technical Data and Computer Software clause at DFARS
 252.227-7013.
  
 Gaussian, Inc.
 Carnegie Office Park, Building 6, Pittsburgh, PA 15106 USA
  
 The following legend is applicable only to US Government
 contracts under FAR:
  
                    RESTRICTED RIGHTS LEGEND
  
 Use, reproduction and disclosure by the US Government is subject
 to restrictions as set forth in subparagraph (c) of the
 Commercial Computer Software - Restricted Rights clause at FAR
 52.227-19.
  
 Gaussian, Inc.
 Carnegie Office Park, Building 6, Pittsburgh, PA 15106 USA
  
  
 ---------------------------------------------------------------
 Warning -- This program may not be used in any manner that
 competes with the business of Gaussian, Inc. or will provide
 assistance to any competitor of Gaussian, Inc.  The licensee
 of this program is prohibited from giving any competitor of
 Gaussian, Inc. access to this program.  By using this program,
 the user acknowledges that Gaussian, Inc. is engaged in the
 business of creating and licensing software in the field of
 computational chemistry and represents and warrants to the
 licensee that it is not a competitor of Gaussian, Inc. and that
 it will not use this program in any manner prohibited above.
 ---------------------------------------------------------------
  

 Cite this work as:
 Gaussian 98, Revision A.11.1,
 M. J. Frisch, G. W. Trucks, H. B. Schlegel, G. E. Scuseria, 
 M. A. Robb, J. R. Cheeseman, V. G. Zakrzewski, J. A. Montgomery, Jr., 
 R. E. Stratmann, J. C. Burant, S. Dapprich, J. M. Millam, 
 A. D. Daniels, K. N. Kudin, M. C. Strain, O. Farkas, J. Tomasi, 
 V. Barone, M. Cossi, R. Cammi, B. Mennucci, C. Pomelli, C. Adamo, 
 S. Clifford, J. Ochterski, G. A. Petersson, P. Y. Ayala, Q. Cui, 
 K. Morokuma, P. Salvador, J. J. Dannenberg, D. K. Malick, 
 A. D. Rabuck, K. Raghavachari, J. B. Foresman, J. Cioslowski, 
 J. V. Ortiz, A. G. Baboul, B. B. Stefanov, G. Liu, A. Liashenko, 
 P. Piskorz, I. Komaromi, R. Gomperts, R. L. Martin, D. J. Fox, 
 T. Keith, M. A. Al-Laham, C. Y. Peng, A. Nanayakkara, M. Challacombe, 
 P. M. W. Gill, B. Johnson, W. Chen, M. W. Wong, J. L. Andres, 
 C. Gonzalez, M. Head-Gordon, E. S. Replogle, and J. A. Pople, 
 Gaussian, Inc., Pittsburgh PA, 2001.

 **************************************************
 Gaussian 98:  IBM64-RS6000-G98RevA.11.1 1-Nov-2001
                    10-Dec-2003 
 **************************************************
 %mem=400MB
 ----------------------------------------------------------------------
 #P 6-31G(d,p) SCF=(Direct,Conver=10,NoSymm) fopt freq GFPrint POP=FULL
 ----------------------------------------------------------------------
 1/18=20,38=1/1,3;
 2/9=110,14=103,17=6,18=5,40=1/2;
 3/5=1,6=6,7=101,11=9,24=1,25=1,30=1/1,2,3;
 4/9=2/1;
 5/5=2,6=10,38=4/2;
 6/7=3,28=1/1;
 7//1,2,3,16;
 1/18=20/3(1);
 99//99;
 2/9=110/2;
 3/5=1,6=6,7=101,11=9,25=1,30=1/1,2,3;
 4/5=5,9=2,16=2/1;
 5/5=2,6=10,38=4/2;
 7//1,2,3,16;
 1/18=20/3(-5);
 2/9=110/2;
 6/7=3,19=2,28=1/1;
 99/9=1/99;
 Leave Link    1 at Wed Dec 10 17:28:27 2003, MaxMem=   52428800 cpu:        .1
 (Enter /apps/gaussian/g98/l101.exe)
 ---
 cpu
 ---
 Symbolic Z-matrix:
 Charge =  0 Multiplicity = 1
 c
 c                    1    cc2
 c                    2    cc3      1    ccc3
 c                    3    cc4      2    ccc4     1    dih4     0
 c                    4    cc5      3    ccc5     2    dih5     0
 c                    5    cc6      4    ccc6     3    dih6     0
 c                    3    cc7      2    ccc7     1    dih7     0
 c                    7    cc8      3    ccc8     2    dih8     0
 c                    8    cc9      7    ccc9     3    dih9     0
 c                    9    cc10     8    ccc10    7    dih10    0
 o                    7    oc11     3    occ11    2    dih11    0
 n                    11   no12     7    noc12    3    dih12    0
 h                    11   ho13     7    hoc13    3    dih13    0
 h                    8    hc14     7    hcc14    3    dih14    0
 h                    9    hc15     10   hcc15    2    dih15    0
 h                    10   hc16     2    hcc16    3    dih16    0
 h                    1    hc17     2    hcc17    10   dih17    0
 h                    6    hc18     5    hcc18    4    dih18    0
 h                    5    hc19     4    hcc19    3    dih19    0
 h                    4    hc20     3    hcc20    2    dih20    0
 h                    12   hn21     11   hno21    7    dih21    0
 h                    12   hn22     11   hno22    7    dih22    0
 h                    12   hn23     11   hno23    7    dih23    0
       Variables:
  cc2                   1.41981                  
  cc3                   1.40801                  
  ccc3                118.494                    
  cc4                   1.41813                  
  ccc4                119.532                    
  dih4                  0.                       
  cc5                   1.35957                  
  ccc5                120.528                    
  dih5                  0.                       
  cc6                   1.41407                  
  ccc6                120.157                    
  dih6                  0.                       
  cc7                   1.42982                  
  ccc7                118.924                    
  dih7                180.                       
  cc8                   1.363                    
  ccc8                120.151                    
  dih8                  0.                       
  cc9                   1.41468                  
  ccc9                120.22                     
  dih9                  0.                       
  cc10                  1.35581                  
  ccc10               121.234                    
  dih10                 0.                       
  oc11                  1.33951                  
  occ11               116.468                    
  dih11               180.                       
  no12                  2.93786                  
  noc12               118.427                    
  dih12               180.                       
  ho13                  0.95544                  
  hoc13               112.208                    
  dih13               180.                       
  hc14                  1.0754                   
  hcc14               119.827                    
  dih14               180.                       
  hc15                  1.07631                  
  hcc15               120.08                     
  dih15               180.                       
  hc16                  1.07565                  
  hcc16               119.294                    
  dih16               180.                       
  hc17                  1.07633                  
  hcc17               118.722                    
  dih17                 0.                       
  hc18                  1.07615                  
  hcc18               119.545                    
  dih18               180.                       
  hc19                  1.07573                  
  hcc19               120.216                    
  dih19               180.                       
  hc20                  1.07301                  
  hcc20               118.658                    
  dih20               180.                       
  hn21                  1.00172                  
  hno21               101.43                     
  dih21               180.                       
  hn22                  1.00145                  
  hno22               115.85                     
  dih22               -63.854                    
  hn23                  1.00145                  
  hno23               115.85                     
  dih23                63.854                    
 Leave Link  101 at Wed Dec 10 17:28:29 2003, MaxMem=   52428800 cpu:        .1
 (Enter /apps/gaussian/g98/l103.exe)

 GradGradGradGradGradGradGradGradGradGradGradGradGradGradGradGradGradGrad
 Berny optimization.
 Initialization pass.
                         ----------------------------
                         !    Initial Parameters    !
                         ! (Angstroms and Degrees)  !
 ------------------------                            -------------------------
 ! Name  Definition              Value          Derivative Info.             !
 -----------------------------------------------------------------------------
 ! R1    R(1,2)                  1.4198         estimate D2E/DX2             !
 ! R2    R(1,6)                  1.3588         estimate D2E/DX2             !
 ! R3    R(1,17)                 1.0763         estimate D2E/DX2             !
 ! R4    R(2,3)                  1.408          estimate D2E/DX2             !
 ! R5    R(2,10)                 1.422          estimate D2E/DX2             !
 ! R6    R(3,4)                  1.4181         estimate D2E/DX2             !
 ! R7    R(3,7)                  1.4298         estimate D2E/DX2             !
 ! R8    R(4,5)                  1.3596         estimate D2E/DX2             !
 ! R9    R(4,20)                 1.073          estimate D2E/DX2             !
 ! R10   R(5,6)                  1.4141         estimate D2E/DX2             !
 ! R11   R(5,19)                 1.0757         estimate D2E/DX2             !
 ! R12   R(6,18)                 1.0761         estimate D2E/DX2             !
 ! R13   R(7,8)                  1.363          estimate D2E/DX2             !
 ! R14   R(7,11)                 1.3395         estimate D2E/DX2             !
 ! R15   R(8,9)                  1.4147         estimate D2E/DX2             !
 ! R16   R(8,14)                 1.0754         estimate D2E/DX2             !
 ! R17   R(9,10)                 1.3558         estimate D2E/DX2             !
 ! R18   R(9,15)                 1.0763         estimate D2E/DX2             !
 ! R19   R(10,16)                1.0756         estimate D2E/DX2             !
 ! R20   R(11,13)                0.9554         estimate D2E/DX2             !
 ! R21   R(12,13)                1.9907         estimate D2E/DX2             !
 ! R22   R(12,21)                1.0017         estimate D2E/DX2             !
 ! R23   R(12,22)                1.0014         estimate D2E/DX2             !
 ! R24   R(12,23)                1.0014         estimate D2E/DX2             !
 ! R25   R(13,21)                2.4411         estimate D2E/DX2             !
 ! R26   R(13,22)                2.5729         estimate D2E/DX2             !
 ! R27   R(13,23)                2.5729         estimate D2E/DX2             !
 ! A1    A(2,1,6)              120.9028         estimate D2E/DX2             !
 ! A2    A(2,1,17)             118.722          estimate D2E/DX2             !
 ! A3    A(6,1,17)             120.3752         estimate D2E/DX2             !
 ! A4    A(1,2,3)              118.494          estimate D2E/DX2             !
 ! A5    A(1,2,10)             121.8225         estimate D2E/DX2             !
 ! A6    A(3,2,10)             119.6835         estimate D2E/DX2             !
 ! A7    A(2,3,4)              119.532          estimate D2E/DX2             !
 ! A8    A(2,3,7)              118.924          estimate D2E/DX2             !
 ! A9    A(4,3,7)              121.544          estimate D2E/DX2             !
 ! A10   A(3,4,5)              120.528          estimate D2E/DX2             !
 ! A11   A(3,4,20)             118.658          estimate D2E/DX2             !
 ! A12   A(5,4,20)             120.814          estimate D2E/DX2             !
 ! A13   A(4,5,6)              120.157          estimate D2E/DX2             !
 ! A14   A(4,5,19)             120.216          estimate D2E/DX2             !
 ! A15   A(6,5,19)             119.627          estimate D2E/DX2             !
 ! A16   A(1,6,5)              120.3862         estimate D2E/DX2             !
 ! A17   A(1,6,18)             120.0688         estimate D2E/DX2             !
 ! A18   A(5,6,18)             119.545          estimate D2E/DX2             !
 ! A19   A(3,7,8)              120.151          estimate D2E/DX2             !
 ! A20   A(3,7,11)             116.468          estimate D2E/DX2             !
 ! A21   A(8,7,11)             123.381          estimate D2E/DX2             !
 ! A22   A(7,8,9)              120.22           estimate D2E/DX2             !
 ! A23   A(7,8,14)             119.827          estimate D2E/DX2             !
 ! A24   A(9,8,14)             119.953          estimate D2E/DX2             !
 ! A25   A(8,9,10)             121.234          estimate D2E/DX2             !
 ! A26   A(8,9,15)             118.686          estimate D2E/DX2             !
 ! A27   A(10,9,15)            120.08           estimate D2E/DX2             !
 ! A28   A(2,10,9)             119.7875         estimate D2E/DX2             !
 ! A29   A(2,10,16)            119.294          estimate D2E/DX2             !
 ! A30   A(9,10,16)            120.9185         estimate D2E/DX2             !
 ! A31   A(7,11,13)            112.208          estimate D2E/DX2             !
 ! A32   A(21,12,22)           107.5956         estimate D2E/DX2             !
 ! A33   A(21,12,23)           107.5956         estimate D2E/DX2             !
 ! A34   A(22,12,23)           107.7731         estimate D2E/DX2             !
 ! A35   A(11,13,12)           170.8007         estimate D2E/DX2             !
 ! A36   A(11,13,21)           147.3822         estimate D2E/DX2             !
 ! A37   A(11,13,22)           161.6607         estimate D2E/DX2             !
 ! A38   A(11,13,23)           161.6607         estimate D2E/DX2             !
 ! A39   A(21,13,22)            37.4977         estimate D2E/DX2             !
 ! A40   A(21,13,23)            37.4977         estimate D2E/DX2             !
 ! A41   A(22,13,23)            36.6538         estimate D2E/DX2             !
 ! D1    D(6,1,2,3)              0.             estimate D2E/DX2             !
 ! D2    D(6,1,2,10)           180.             estimate D2E/DX2             !
 ! D3    D(17,1,2,3)           180.             estimate D2E/DX2             !
 ! D4    D(17,1,2,10)            0.             estimate D2E/DX2             !
 ! D5    D(2,1,6,5)              0.             estimate D2E/DX2             !
 ! D6    D(2,1,6,18)           180.             estimate D2E/DX2             !
 ! D7    D(17,1,6,5)           180.             estimate D2E/DX2             !
 ! D8    D(17,1,6,18)            0.             estimate D2E/DX2             !
 ! D9    D(1,2,3,4)              0.             estimate D2E/DX2             !
 ! D10   D(1,2,3,7)            180.             estimate D2E/DX2             !
 ! D11   D(10,2,3,4)           180.             estimate D2E/DX2             !
 ! D12   D(10,2,3,7)             0.             estimate D2E/DX2             !
 ! D13   D(1,2,10,9)           180.             estimate D2E/DX2             !
 ! D14   D(1,2,10,16)            0.             estimate D2E/DX2             !
 ! D15   D(3,2,10,9)             0.             estimate D2E/DX2             !
 ! D16   D(3,2,10,16)          180.             estimate D2E/DX2             !
 ! D17   D(2,3,4,5)              0.             estimate D2E/DX2             !
 ! D18   D(2,3,4,20)           180.             estimate D2E/DX2             !
 ! D19   D(7,3,4,5)            180.             estimate D2E/DX2             !
 ! D20   D(7,3,4,20)             0.             estimate D2E/DX2             !
 ! D21   D(2,3,7,8)              0.             estimate D2E/DX2             !
 ! D22   D(2,3,7,11)           180.             estimate D2E/DX2             !
 ! D23   D(4,3,7,8)            180.             estimate D2E/DX2             !
 ! D24   D(4,3,7,11)             0.             estimate D2E/DX2             !
 ! D25   D(3,4,5,6)              0.             estimate D2E/DX2             !
 ! D26   D(3,4,5,19)           180.             estimate D2E/DX2             !
 ! D27   D(20,4,5,6)           180.             estimate D2E/DX2             !
 ! D28   D(20,4,5,19)            0.             estimate D2E/DX2             !
 ! D29   D(4,5,6,1)              0.             estimate D2E/DX2             !
 ! D30   D(4,5,6,18)           180.             estimate D2E/DX2             !
 ! D31   D(19,5,6,1)           180.             estimate D2E/DX2             !
 ! D32   D(19,5,6,18)            0.             estimate D2E/DX2             !
 ! D33   D(3,7,8,9)              0.             estimate D2E/DX2             !
 ! D34   D(3,7,8,14)           180.             estimate D2E/DX2             !
 ! D35   D(11,7,8,9)           180.             estimate D2E/DX2             !
 ! D36   D(11,7,8,14)            0.             estimate D2E/DX2             !
 ! D37   D(3,7,11,13)          180.             estimate D2E/DX2             !
 ! D38   D(8,7,11,13)            0.             estimate D2E/DX2             !
 ! D39   D(7,8,9,10)             0.             estimate D2E/DX2             !
 ! D40   D(7,8,9,15)           180.             estimate D2E/DX2             !
 ! D41   D(14,8,9,10)          180.             estimate D2E/DX2             !
 ! D42   D(14,8,9,15)            0.             estimate D2E/DX2             !
 ! D43   D(8,9,10,2)             0.             estimate D2E/DX2             !
 ! D44   D(8,9,10,16)          180.             estimate D2E/DX2             !
 ! D45   D(15,9,10,2)          180.             estimate D2E/DX2             !
 ! D46   D(15,9,10,16)           0.             estimate D2E/DX2             !
 ! D47   D(7,11,13,12)         180.             estimate D2E/DX2             !
 ! D48   D(7,11,13,21)         180.             estimate D2E/DX2             !
 ! D49   D(7,11,13,22)         -87.9296         estimate D2E/DX2             !
 ! D50   D(7,11,13,23)          87.9296         estimate D2E/DX2             !
 -----------------------------------------------------------------------------
 Trust Radius=3.00D-01 FncErr=1.00D-07 GrdErr=1.00D-07
 Number of steps in this run= 128 maximum allowed number of steps= 138.
 GradGradGradGradGradGradGradGradGradGradGradGradGradGradGradGradGradGrad

 Leave Link  103 at Wed Dec 10 17:28:29 2003, MaxMem=   52428800 cpu:        .1
 (Enter /apps/gaussian/g98/l202.exe)
                          Input orientation:                          
 ---------------------------------------------------------------------
 Center     Atomic     Atomic              Coordinates (Angstroms)
 Number     Number      Type              X           Y           Z
 ---------------------------------------------------------------------
    1          6             0         .000000     .000000     .000000
    2          6             0         .000000     .000000    1.419810
    3          6             0        1.237457     .000000    2.091527
    4          6             0        2.440441     .000000    1.340578
    5          6             0        2.406133     .000000    -.018560
    6          6             0        1.165921     .000000    -.697865
    7          6             0        1.248188     .000000    3.521306
    8          6             0         .074769     .000000    4.214739
    9          6             0       -1.160151     .000000    3.524594
   10          6             0       -1.208296     .000000    2.169641
   11          8             0        2.451739     .000000    4.109306
   12          7             0        2.574200     .000000    7.044616
   13          1             0        2.387919     .000000    5.062615
   14          1             0         .088921     .000000    5.290051
   15          1             0       -2.071771     .000000    4.096785
   16          1             0       -2.150138     .000000    1.650069
   17          1             0        -.943898     .000000    -.517240
   18          1             0        1.150257     .000000   -1.773898
   19          1             0        3.321749     .000000    -.583217
   20          1             0        3.375560     .000000    1.866802
   21          1             0        3.563478     .000000    7.202027
   22          1             0        2.195605     .809022    7.497439
   23          1             0        2.195605    -.809022    7.497439
 ---------------------------------------------------------------------
                    Distance matrix (angstroms):
                    1          2          3          4          5
     1  C     .000000
     2  C    1.419810    .000000
     3  C    2.430182   1.408014    .000000
     4  C    2.784403   2.441727   1.418131    .000000
     5  C    2.406204   2.803281   2.412108   1.359570    .000000
     6  C    1.358818   2.417420   2.790309   2.404091   1.414066
     7  C    3.735983   2.444230   1.429820   2.485367   3.724445
     8  C    4.215402   2.795929   2.420718   3.722528   4.832812
     9  C    3.710622   2.403345   2.793243   4.211199   5.027158
    10  C    2.483409   1.422050   2.447000   3.741742   4.225200
    11  O    4.785125   3.639287   2.354976   2.768751   4.128117
    12  N    7.500208   6.185866   5.130299   5.705606   7.065174
    13  H    5.597520   4.355707   3.186052   3.722408   5.081207
    14  H    5.290798   3.871262   3.398484   4.596519   5.792307
    15  H    4.590848   3.385031   3.869374   5.287414   6.081750
    16  H    2.710318   2.162432   3.416238   4.601000   4.852208
    17  H    1.076327   2.154787   3.400584   3.860730   3.386943
    18  H    2.114192   3.394534   3.866408   3.371133   2.158342
    19  H    3.372560   3.878935   3.390948   2.116055   1.075728
    20  H    3.857377   3.405027   2.149880   1.073014   2.119995
    21  H    8.035395   6.792085   5.614944   5.968066   7.312751
    22  H    7.854094   6.512509   5.549455   6.214612   7.562345
    23  H    7.854094   6.512509   5.549455   6.214612   7.562345
                    6          7          8          9         10
     6  C     .000000
     7  C    4.219974    .000000
     8  C    5.032325   1.362997    .000000
     9  C    4.820765   2.408341   1.414683    .000000
    10  C    3.722835   2.803803   2.414266   1.355808    .000000
    11  O    4.976166   1.339507   2.379307   3.658912   4.142240
    12  N    7.869515   3.764574   3.775627   5.131855   6.170304
    13  H    5.888668   1.916930   2.463647   3.867080   4.615415
    14  H    6.084001   2.114795   1.075405   2.162642   3.379309
    15  H    5.785441   3.369466   2.149779   1.076315   2.111747
    16  H    4.063132   3.879451   3.395253   2.119886   1.075649
    17  H    2.117536   4.595116   4.840383   4.047615   2.699859
    18  H    1.076147   5.296110   6.084444   5.780312   4.595027
    19  H    2.158875   4.598561   5.793381   6.079600   5.300899
    20  H    3.385266   2.695013   4.050683   4.829177   4.593849
    21  H    8.255700   4.348365   4.592927   5.986334   6.935037
    22  H    8.299264   4.166743   3.991062   5.262995   6.373891
    23  H    8.299264   4.166743   3.991062   5.262995   6.373891
                   11         12         13         14         15
    11  O     .000000
    12  N    2.937863    .000000
    13  H     .955443   1.990735    .000000
    14  H    2.641414   3.042221   2.310221    .000000
    15  H    4.523528   5.502250   4.563076   2.468294    .000000
    16  H    5.217769   7.170809   5.677977   4.273505   2.447970
    17  H    5.738926   8.340184   6.498906   5.898419   4.749876
    18  H    6.025442   8.932738   6.947642   7.143236   6.696745
    19  H    4.772493   7.664376   5.722539   6.704212   7.140902
    20  H    2.425339   5.239459   3.344945   4.745591   5.886106
    21  H    3.286471   1.001723   2.441111   3.965880   6.434172
    22  H    3.492788   1.001449   2.572910   3.156770   5.516291
    23  H    3.492788   1.001449   2.572910   3.156770   5.516291
                   16         17         18         19         20
    16  H     .000000
    17  H    2.480372    .000000
    18  H    4.755645   2.442268    .000000
    19  H    5.910086   4.266157   2.476510    .000000
    20  H    5.529946   4.933697   4.266928   2.450610    .000000
    21  H    7.966784   8.938877   9.294669   7.788996   5.338534
    22  H    7.330193   8.645581   9.365093   8.198763   5.809551
    23  H    7.330193   8.645581   9.365093   8.198763   5.809551
                   21         22         23
    21  H     .000000
    22  H    1.616435    .000000
    23  H    1.616435   1.618044    .000000
 Stoichiometry    C10H11NO
 Framework group  CS[SG(C10H9NO),X(H2)]
 Deg. of freedom   42
 Full point group                 CS      NOp   2
 Largest Abelian subgroup         CS      NOp   2
 Largest concise Abelian subgroup CS      NOp   2
                         Standard orientation:                         
 ---------------------------------------------------------------------
 Center     Atomic     Atomic              Coordinates (Angstroms)
 Number     Number      Type              X           Y           Z
 ---------------------------------------------------------------------
    1          6             0       -1.938342    2.031323     .000000
    2          6             0       -1.399773     .717625     .000000
    3          6             0         .000000     .565508     .000000
    4          6             0         .828224    1.716655     .000000
    5          6             0         .280926    2.961201     .000000
    6          6             0       -1.124275    3.119295     .000000
    7          6             0         .552279    -.753345     .000000
    8          6             0        -.270406   -1.840060     .000000
    9          6             0       -1.674822   -1.669929     .000000
   10          6             0       -2.233336    -.434503     .000000
   11          8             0        1.888924    -.840863     .000000
   12          7             0        3.115668   -3.510346     .000000
   13          1             0        2.191487   -1.747134     .000000
   14          1             0         .150580   -2.829639     .000000
   15          1             0       -2.301265   -2.545157     .000000
   16          1             0       -3.301874    -.311026     .000000
   17          1             0       -3.007898    2.151863     .000000
   18          1             0       -1.546934    4.108968     .000000
   19          1             0         .913923    3.830974     .000000
   20          1             0        1.893065    1.584472     .000000
   21          1             0        4.090721   -3.280736     .000000
   22          1             0        2.937135   -4.072937     .809022
   23          1             0        2.937135   -4.072937    -.809022
 ---------------------------------------------------------------------
 Rotational constants (GHZ):      1.6949231       .5985074       .4433411
 Isotopes: C-12,C-12,C-12,C-12,C-12,C-12,C-12,C-12,C-12,C-12,O-16,N-14,H-1,H-1,H-
 1,H-1,H-1,H-1,H-1,H-1,H-1,H-1,H-1
 Leave Link  202 at Wed Dec 10 17:28:31 2003, MaxMem=   52428800 cpu:        .1
 (Enter /apps/gaussian/g98/l301.exe)
 Standard basis: 6-31G(d,p) (6D, 7F)
 ***********************************************************************************************************************************
 *             ATOMIC CENTER             *        ATOMIC ORBITAL       *                     GAUSSIAN FUNCTIONS                    *
 ***********************************************************************************************************************************
 *                                       * FUNCTION    SHELL    SCALE  *                                                           *
 *    ATOM   X-COORD  Y-COORD  Z-COORD   *  NUMBER     TYPE     FACTOR *  EXPONENT    S-COEF      P-COEF      D-COEF      F-COEF   *
 ***********************************************************************************************************************************
 *     C     -3.66293  3.83864   .00000                                                                                            *
+                                                1   S           1.00                                                               
+                                                                       .304752D+04 .183474D-02 .000000D+00 .000000D+00 .000000D+00 
 *                                                                      .457370D+03 .140373D-01 .000000D+00 .000000D+00 .000000D+00*
 *                                                                      .103949D+03 .688426D-01 .000000D+00 .000000D+00 .000000D+00*
 *                                                                      .292102D+02 .232184D+00 .000000D+00 .000000D+00 .000000D+00*
 *                                                                      .928666D+01 .467941D+00 .000000D+00 .000000D+00 .000000D+00*
 *                                                                      .316393D+01 .362312D+00 .000000D+00 .000000D+00 .000000D+00*
 *                                           2-  5   SP          1.00                                                              *
+                                                                       .786827D+01-.119332D+00 .689991D-01 .000000D+00 .000000D+00 
 *                                                                      .188129D+01-.160854D+00 .316424D+00 .000000D+00 .000000D+00*
 *                                                                      .544249D+00 .114346D+01 .744308D+00 .000000D+00 .000000D+00*
 *                                           6-  9   SP          1.00                                                              *
+                                                                       .168714D+00 .100000D+01 .100000D+01 .000000D+00 .000000D+00 
 *                                          10- 15   6D          1.00                                                              *
+                                                                       .800000D+00 .000000D+00 .000000D+00 .100000D+01 .000000D+00 
 *---------------------------------------------------------------------------------------------------------------------------------*
 *     C     -2.64519  1.35611   .00000                                                                                            *
+                                               16   S           1.00                                                               
+                                                                       .304752D+04 .183474D-02 .000000D+00 .000000D+00 .000000D+00 
 *                                                                      .457370D+03 .140373D-01 .000000D+00 .000000D+00 .000000D+00*
 *                                                                      .103949D+03 .688426D-01 .000000D+00 .000000D+00 .000000D+00*
 *                                                                      .292102D+02 .232184D+00 .000000D+00 .000000D+00 .000000D+00*
 *                                                                      .928666D+01 .467941D+00 .000000D+00 .000000D+00 .000000D+00*
 *                                                                      .316393D+01 .362312D+00 .000000D+00 .000000D+00 .000000D+00*
 *                                          17- 20   SP          1.00                                                              *
+                                                                       .786827D+01-.119332D+00 .689991D-01 .000000D+00 .000000D+00 
 *                                                                      .188129D+01-.160854D+00 .316424D+00 .000000D+00 .000000D+00*
 *                                                                      .544249D+00 .114346D+01 .744308D+00 .000000D+00 .000000D+00*
 *                                          21- 24   SP          1.00                                                              *
+                                                                       .168714D+00 .100000D+01 .100000D+01 .000000D+00 .000000D+00 
 *                                          25- 30   6D          1.00                                                              *
+                                                                       .800000D+00 .000000D+00 .000000D+00 .100000D+01 .000000D+00 
 *---------------------------------------------------------------------------------------------------------------------------------*
 *     C       .00000  1.06865   .00000                                                                                            *
+                                               31   S           1.00                                                               
+                                                                       .304752D+04 .183474D-02 .000000D+00 .000000D+00 .000000D+00 
 *                                                                      .457370D+03 .140373D-01 .000000D+00 .000000D+00 .000000D+00*
 *                                                                      .103949D+03 .688426D-01 .000000D+00 .000000D+00 .000000D+00*
 *                                                                      .292102D+02 .232184D+00 .000000D+00 .000000D+00 .000000D+00*
 *                                                                      .928666D+01 .467941D+00 .000000D+00 .000000D+00 .000000D+00*
 *                                                                      .316393D+01 .362312D+00 .000000D+00 .000000D+00 .000000D+00*
 *                                          32- 35   SP          1.00                                                              *
+                                                                       .786827D+01-.119332D+00 .689991D-01 .000000D+00 .000000D+00 
 *                                                                      .188129D+01-.160854D+00 .316424D+00 .000000D+00 .000000D+00*
 *                                                                      .544249D+00 .114346D+01 .744308D+00 .000000D+00 .000000D+00*
 *                                          36- 39   SP          1.00                                                              *
+                                                                       .168714D+00 .100000D+01 .100000D+01 .000000D+00 .000000D+00 
 *                                          40- 45   6D          1.00                                                              *
+                                                                       .800000D+00 .000000D+00 .000000D+00 .100000D+01 .000000D+00 
 *---------------------------------------------------------------------------------------------------------------------------------*
 *     C      1.56512  3.24401   .00000                                                                                            *
+                                               46   S           1.00                                                               
+                                                                       .304752D+04 .183474D-02 .000000D+00 .000000D+00 .000000D+00 
 *                                                                      .457370D+03 .140373D-01 .000000D+00 .000000D+00 .000000D+00*
 *                                                                      .103949D+03 .688426D-01 .000000D+00 .000000D+00 .000000D+00*
 *                                                                      .292102D+02 .232184D+00 .000000D+00 .000000D+00 .000000D+00*
 *                                                                      .928666D+01 .467941D+00 .000000D+00 .000000D+00 .000000D+00*
 *                                                                      .316393D+01 .362312D+00 .000000D+00 .000000D+00 .000000D+00*
 *                                          47- 50   SP          1.00                                                              *
+                                                                       .786827D+01-.119332D+00 .689991D-01 .000000D+00 .000000D+00 
 *                                                                      .188129D+01-.160854D+00 .316424D+00 .000000D+00 .000000D+00*
 *                                                                      .544249D+00 .114346D+01 .744308D+00 .000000D+00 .000000D+00*
 *                                          51- 54   SP          1.00                                                              *
+                                                                       .168714D+00 .100000D+01 .100000D+01 .000000D+00 .000000D+00 
 *                                          55- 60   6D          1.00                                                              *
+                                                                       .800000D+00 .000000D+00 .000000D+00 .100000D+01 .000000D+00 
 *---------------------------------------------------------------------------------------------------------------------------------*
 *     C       .53087  5.59586   .00000                                                                                            *
+                                               61   S           1.00                                                               
+                                                                       .304752D+04 .183474D-02 .000000D+00 .000000D+00 .000000D+00 
 *                                                                      .457370D+03 .140373D-01 .000000D+00 .000000D+00 .000000D+00*
 *                                                                      .103949D+03 .688426D-01 .000000D+00 .000000D+00 .000000D+00*
 *                                                                      .292102D+02 .232184D+00 .000000D+00 .000000D+00 .000000D+00*
 *                                                                      .928666D+01 .467941D+00 .000000D+00 .000000D+00 .000000D+00*
 *                                                                      .316393D+01 .362312D+00 .000000D+00 .000000D+00 .000000D+00*
 *                                          62- 65   SP          1.00                                                              *
+                                                                       .786827D+01-.119332D+00 .689991D-01 .000000D+00 .000000D+00 
 *                                                                      .188129D+01-.160854D+00 .316424D+00 .000000D+00 .000000D+00*
 *                                                                      .544249D+00 .114346D+01 .744308D+00 .000000D+00 .000000D+00*
 *                                          66- 69   SP          1.00                                                              *
+                                                                       .168714D+00 .100000D+01 .100000D+01 .000000D+00 .000000D+00 
 *                                          70- 75   6D          1.00                                                              *
+                                                                       .800000D+00 .000000D+00 .000000D+00 .100000D+01 .000000D+00 
 *---------------------------------------------------------------------------------------------------------------------------------*
 *     C     -2.12457  5.89461   .00000                                                                                            *
+                                               76   S           1.00                                                               
+                                                                       .304752D+04 .183474D-02 .000000D+00 .000000D+00 .000000D+00 
 *                                                                      .457370D+03 .140373D-01 .000000D+00 .000000D+00 .000000D+00*
 *                                                                      .103949D+03 .688426D-01 .000000D+00 .000000D+00 .000000D+00*
 *                                                                      .292102D+02 .232184D+00 .000000D+00 .000000D+00 .000000D+00*
 *                                                                      .928666D+01 .467941D+00 .000000D+00 .000000D+00 .000000D+00*
 *                                                                      .316393D+01 .362312D+00 .000000D+00 .000000D+00 .000000D+00*
 *                                          77- 80   SP          1.00                                                              *
+                                                                       .786827D+01-.119332D+00 .689991D-01 .000000D+00 .000000D+00 
 *                                                                      .188129D+01-.160854D+00 .316424D+00 .000000D+00 .000000D+00*
 *                                                                      .544249D+00 .114346D+01 .744308D+00 .000000D+00 .000000D+00*
 *                                          81- 84   SP          1.00                                                              *
+                                                                       .168714D+00 .100000D+01 .100000D+01 .000000D+00 .000000D+00 
 *                                          85- 90   6D          1.00                                                              *
+                                                                       .800000D+00 .000000D+00 .000000D+00 .100000D+01 .000000D+00 
 *---------------------------------------------------------------------------------------------------------------------------------*
 *     C      1.04366 -1.42362   .00000                                                                                            *
+                                               91   S           1.00                                                               
+                                                                       .304752D+04 .183474D-02 .000000D+00 .000000D+00 .000000D+00 
 *                                                                      .457370D+03 .140373D-01 .000000D+00 .000000D+00 .000000D+00*
 *                                                                      .103949D+03 .688426D-01 .000000D+00 .000000D+00 .000000D+00*
 *                                                                      .292102D+02 .232184D+00 .000000D+00 .000000D+00 .000000D+00*
 *                                                                      .928666D+01 .467941D+00 .000000D+00 .000000D+00 .000000D+00*
 *                                                                      .316393D+01 .362312D+00 .000000D+00 .000000D+00 .000000D+00*
 *                                          92- 95   SP          1.00                                                              *
+                                                                       .786827D+01-.119332D+00 .689991D-01 .000000D+00 .000000D+00 
 *                                                                      .188129D+01-.160854D+00 .316424D+00 .000000D+00 .000000D+00*
 *                                                                      .544249D+00 .114346D+01 .744308D+00 .000000D+00 .000000D+00*
 *                                          96- 99   SP          1.00                                                              *
+                                                                       .168714D+00 .100000D+01 .100000D+01 .000000D+00 .000000D+00 
 *                                         100-105   6D          1.00                                                              *
+                                                                       .800000D+00 .000000D+00 .000000D+00 .100000D+01 .000000D+00 
 *---------------------------------------------------------------------------------------------------------------------------------*
 *     C      -.51099 -3.47721   .00000                                                                                            *
+                                              106   S           1.00                                                               
+                                                                       .304752D+04 .183474D-02 .000000D+00 .000000D+00 .000000D+00 
 *                                                                      .457370D+03 .140373D-01 .000000D+00 .000000D+00 .000000D+00*
 *                                                                      .103949D+03 .688426D-01 .000000D+00 .000000D+00 .000000D+00*
 *                                                                      .292102D+02 .232184D+00 .000000D+00 .000000D+00 .000000D+00*
 *                                                                      .928666D+01 .467941D+00 .000000D+00 .000000D+00 .000000D+00*
 *                                                                      .316393D+01 .362312D+00 .000000D+00 .000000D+00 .000000D+00*
 *                                         107-110   SP          1.00                                                              *
+                                                                       .786827D+01-.119332D+00 .689991D-01 .000000D+00 .000000D+00 
 *                                                                      .188129D+01-.160854D+00 .316424D+00 .000000D+00 .000000D+00*
 *                                                                      .544249D+00 .114346D+01 .744308D+00 .000000D+00 .000000D+00*
 *                                         111-114   SP          1.00                                                              *
+                                                                       .168714D+00 .100000D+01 .100000D+01 .000000D+00 .000000D+00 
 *                                         115-120   6D          1.00                                                              *
+                                                                       .800000D+00 .000000D+00 .000000D+00 .100000D+01 .000000D+00 
 *---------------------------------------------------------------------------------------------------------------------------------*
 *     C     -3.16495 -3.15571   .00000                                                                                            *
+                                              121   S           1.00                                                               
+                                                                       .304752D+04 .183474D-02 .000000D+00 .000000D+00 .000000D+00 
 *                                                                      .457370D+03 .140373D-01 .000000D+00 .000000D+00 .000000D+00*
 *                                                                      .103949D+03 .688426D-01 .000000D+00 .000000D+00 .000000D+00*
 *                                                                      .292102D+02 .232184D+00 .000000D+00 .000000D+00 .000000D+00*
 *                                                                      .928666D+01 .467941D+00 .000000D+00 .000000D+00 .000000D+00*
 *                                                                      .316393D+01 .362312D+00 .000000D+00 .000000D+00 .000000D+00*
 *                                         122-125   SP          1.00                                                              *
+                                                                       .786827D+01-.119332D+00 .689991D-01 .000000D+00 .000000D+00 
 *                                                                      .188129D+01-.160854D+00 .316424D+00 .000000D+00 .000000D+00*
 *                                                                      .544249D+00 .114346D+01 .744308D+00 .000000D+00 .000000D+00*
 *                                         126-129   SP          1.00                                                              *
+                                                                       .168714D+00 .100000D+01 .100000D+01 .000000D+00 .000000D+00 
 *                                         130-135   6D          1.00                                                              *
+                                                                       .800000D+00 .000000D+00 .000000D+00 .100000D+01 .000000D+00 
 *---------------------------------------------------------------------------------------------------------------------------------*
 *     C     -4.22039  -.82109   .00000                                                                                            *
+                                              136   S           1.00                                                               
+                                                                       .304752D+04 .183474D-02 .000000D+00 .000000D+00 .000000D+00 
 *                                                                      .457370D+03 .140373D-01 .000000D+00 .000000D+00 .000000D+00*
 *                                                                      .103949D+03 .688426D-01 .000000D+00 .000000D+00 .000000D+00*
 *                                                                      .292102D+02 .232184D+00 .000000D+00 .000000D+00 .000000D+00*
 *                                                                      .928666D+01 .467941D+00 .000000D+00 .000000D+00 .000000D+00*
 *                                                                      .316393D+01 .362312D+00 .000000D+00 .000000D+00 .000000D+00*
 *                                         137-140   SP          1.00                                                              *
+                                                                       .786827D+01-.119332D+00 .689991D-01 .000000D+00 .000000D+00 
 *                                                                      .188129D+01-.160854D+00 .316424D+00 .000000D+00 .000000D+00*
 *                                                                      .544249D+00 .114346D+01 .744308D+00 .000000D+00 .000000D+00*
 *                                         141-144   SP          1.00                                                              *
+                                                                       .168714D+00 .100000D+01 .100000D+01 .000000D+00 .000000D+00 
 *                                         145-150   6D          1.00                                                              *
+                                                                       .800000D+00 .000000D+00 .000000D+00 .100000D+01 .000000D+00 
 *---------------------------------------------------------------------------------------------------------------------------------*
 *     O      3.56955 -1.58900   .00000                                                                                            *
+                                              151   S           1.00                                                               
+                                                                       .548467D+04 .183107D-02 .000000D+00 .000000D+00 .000000D+00 
 *                                                                      .825235D+03 .139502D-01 .000000D+00 .000000D+00 .000000D+00*
 *                                                                      .188047D+03 .684451D-01 .000000D+00 .000000D+00 .000000D+00*
 *                                                                      .529645D+02 .232714D+00 .000000D+00 .000000D+00 .000000D+00*
 *                                                                      .168976D+02 .470193D+00 .000000D+00 .000000D+00 .000000D+00*
 *                                                                      .579964D+01 .358521D+00 .000000D+00 .000000D+00 .000000D+00*
 *                                         152-155   SP          1.00                                                              *
+                                                                       .155396D+02-.110778D+00 .708743D-01 .000000D+00 .000000D+00 
 *                                                                      .359993D+01-.148026D+00 .339753D+00 .000000D+00 .000000D+00*
 *                                                                      .101376D+01 .113077D+01 .727159D+00 .000000D+00 .000000D+00*
 *                                         156-159   SP          1.00                                                              *
+                                                                       .270006D+00 .100000D+01 .100000D+01 .000000D+00 .000000D+00 
 *                                         160-165   6D          1.00                                                              *
+                                                                       .800000D+00 .000000D+00 .000000D+00 .100000D+01 .000000D+00 
 *---------------------------------------------------------------------------------------------------------------------------------*
 *     N      5.88776 -6.63359   .00000                                                                                            *
+                                              166   S           1.00                                                               
+                                                                       .417351D+04 .183477D-02 .000000D+00 .000000D+00 .000000D+00 
 *                                                                      .627458D+03 .139946D-01 .000000D+00 .000000D+00 .000000D+00*
 *                                                                      .142902D+03 .685866D-01 .000000D+00 .000000D+00 .000000D+00*
 *                                                                      .402343D+02 .232241D+00 .000000D+00 .000000D+00 .000000D+00*
 *                                                                      .128202D+02 .469070D+00 .000000D+00 .000000D+00 .000000D+00*
 *                                                                      .439044D+01 .360455D+00 .000000D+00 .000000D+00 .000000D+00*
 *                                         167-170   SP          1.00                                                              *
+                                                                       .116264D+02-.114961D+00 .675797D-01 .000000D+00 .000000D+00 
 *                                                                      .271628D+01-.169117D+00 .323907D+00 .000000D+00 .000000D+00*
 *                                                                      .772218D+00 .114585D+01 .740895D+00 .000000D+00 .000000D+00*
 *                                         171-174   SP          1.00                                                              *
+                                                                       .212031D+00 .100000D+01 .100000D+01 .000000D+00 .000000D+00 
 *                                         175-180   6D          1.00                                                              *
+                                                                       .800000D+00 .000000D+00 .000000D+00 .100000D+01 .000000D+00 
 *---------------------------------------------------------------------------------------------------------------------------------*
 *     H      4.14131 -3.30160   .00000                                                                                            *
+                                              181   S           1.00                                                               
+                                                                       .187311D+02 .334946D-01 .000000D+00 .000000D+00 .000000D+00 
 *                                                                      .282539D+01 .234727D+00 .000000D+00 .000000D+00 .000000D+00*
 *                                                                      .640122D+00 .813757D+00 .000000D+00 .000000D+00 .000000D+00*
 *                                             182   S           1.00                                                              *
+                                                                       .161278D+00 .100000D+01 .000000D+00 .000000D+00 .000000D+00 
 *                                         183-185   P           1.00                                                              *
+                                                                       .110000D+01 .000000D+00 .100000D+01 .000000D+00 .000000D+00 
 *---------------------------------------------------------------------------------------------------------------------------------*
 *     H       .28455 -5.34724   .00000                                                                                            *
+                                              186   S           1.00                                                               
+                                                                       .187311D+02 .334946D-01 .000000D+00 .000000D+00 .000000D+00 
 *                                                                      .282539D+01 .234727D+00 .000000D+00 .000000D+00 .000000D+00*
 *                                                                      .640122D+00 .813757D+00 .000000D+00 .000000D+00 .000000D+00*
 *                                             187   S           1.00                                                              *
+                                                                       .161278D+00 .100000D+01 .000000D+00 .000000D+00 .000000D+00 
 *                                         188-190   P           1.00                                                              *
+                                                                       .110000D+01 .000000D+00 .100000D+01 .000000D+00 .000000D+00 
 *---------------------------------------------------------------------------------------------------------------------------------*
 *     H     -4.34876 -4.80965   .00000                                                                                            *
+                                              191   S           1.00                                                               
+                                                                       .187311D+02 .334946D-01 .000000D+00 .000000D+00 .000000D+00 
 *                                                                      .282539D+01 .234727D+00 .000000D+00 .000000D+00 .000000D+00*
 *                                                                      .640122D+00 .813757D+00 .000000D+00 .000000D+00 .000000D+00*
 *                                             192   S           1.00                                                              *
+                                                                       .161278D+00 .100000D+01 .000000D+00 .000000D+00 .000000D+00 
 *                                         193-195   P           1.00                                                              *
+                                                                       .110000D+01 .000000D+00 .100000D+01 .000000D+00 .000000D+00 
 *---------------------------------------------------------------------------------------------------------------------------------*
 *     H     -6.23964  -.58775   .00000                                                                                            *
+                                              196   S           1.00                                                               
+                                                                       .187311D+02 .334946D-01 .000000D+00 .000000D+00 .000000D+00 
 *                                                                      .282539D+01 .234727D+00 .000000D+00 .000000D+00 .000000D+00*
 *                                                                      .640122D+00 .813757D+00 .000000D+00 .000000D+00 .000000D+00*
 *                                             197   S           1.00                                                              *
+                                                                       .161278D+00 .100000D+01 .000000D+00 .000000D+00 .000000D+00 
 *                                         198-200   P           1.00                                                              *
+                                                                       .110000D+01 .000000D+00 .100000D+01 .000000D+00 .000000D+00 
 *---------------------------------------------------------------------------------------------------------------------------------*
 *     H     -5.68410  4.06643   .00000                                                                                            *
+                                              201   S           1.00                                                               
+                                                                       .187311D+02 .334946D-01 .000000D+00 .000000D+00 .000000D+00 
 *                                                                      .282539D+01 .234727D+00 .000000D+00 .000000D+00 .000000D+00*
 *                                                                      .640122D+00 .813757D+00 .000000D+00 .000000D+00 .000000D+00*
 *                                             202   S           1.00                                                              *
+                                                                       .161278D+00 .100000D+01 .000000D+00 .000000D+00 .000000D+00 
 *                                         203-205   P           1.00                                                              *
+                                                                       .110000D+01 .000000D+00 .100000D+01 .000000D+00 .000000D+00 
 *---------------------------------------------------------------------------------------------------------------------------------*
 *     H     -2.92328  7.76482   .00000                                                                                            *
+                                              206   S           1.00                                                               
+                                                                       .187311D+02 .334946D-01 .000000D+00 .000000D+00 .000000D+00 
 *                                                                      .282539D+01 .234727D+00 .000000D+00 .000000D+00 .000000D+00*
 *                                                                      .640122D+00 .813757D+00 .000000D+00 .000000D+00 .000000D+00*
 *                                             207   S           1.00                                                              *
+                                                                       .161278D+00 .100000D+01 .000000D+00 .000000D+00 .000000D+00 
 *                                         208-210   P           1.00                                                              *
+                                                                       .110000D+01 .000000D+00 .100000D+01 .000000D+00 .000000D+00 
 *---------------------------------------------------------------------------------------------------------------------------------*
 *     H      1.72706  7.23949   .00000                                                                                            *
+                                              211   S           1.00                                                               
+                                                                       .187311D+02 .334946D-01 .000000D+00 .000000D+00 .000000D+00 
 *                                                                      .282539D+01 .234727D+00 .000000D+00 .000000D+00 .000000D+00*
 *                                                                      .640122D+00 .813757D+00 .000000D+00 .000000D+00 .000000D+00*
 *                                             212   S           1.00                                                              *
+                                                                       .161278D+00 .100000D+01 .000000D+00 .000000D+00 .000000D+00 
 *                                         213-215   P           1.00                                                              *
+                                                                       .110000D+01 .000000D+00 .100000D+01 .000000D+00 .000000D+00 
 *---------------------------------------------------------------------------------------------------------------------------------*
 *     H      3.57737  2.99422   .00000                                                                                            *
+                                              216   S           1.00                                                               
+                                                                       .187311D+02 .334946D-01 .000000D+00 .000000D+00 .000000D+00 
 *                                                                      .282539D+01 .234727D+00 .000000D+00 .000000D+00 .000000D+00*
 *                                                                      .640122D+00 .813757D+00 .000000D+00 .000000D+00 .000000D+00*
 *                                             217   S           1.00                                                              *
+                                                                       .161278D+00 .100000D+01 .000000D+00 .000000D+00 .000000D+00 
 *                                         218-220   P           1.00                                                              *
+                                                                       .110000D+01 .000000D+00 .100000D+01 .000000D+00 .000000D+00 
 *---------------------------------------------------------------------------------------------------------------------------------*
 *     H      7.73034 -6.19969   .00000                                                                                            *
+                                              221   S           1.00                                                               
+                                                                       .187311D+02 .334946D-01 .000000D+00 .000000D+00 .000000D+00 
 *                                                                      .282539D+01 .234727D+00 .000000D+00 .000000D+00 .000000D+00*
 *                                                                      .640122D+00 .813757D+00 .000000D+00 .000000D+00 .000000D+00*
 *                                             222   S           1.00                                                              *
+                                                                       .161278D+00 .100000D+01 .000000D+00 .000000D+00 .000000D+00 
 *                                         223-225   P           1.00                                                              *
+                                                                       .110000D+01 .000000D+00 .100000D+01 .000000D+00 .000000D+00 
 *---------------------------------------------------------------------------------------------------------------------------------*
 *     H      5.55038 -7.69674  1.52883                                                                                            *
+                                              226   S           1.00                                                               
+                                                                       .187311D+02 .334946D-01 .000000D+00 .000000D+00 .000000D+00 
 *                                                                      .282539D+01 .234727D+00 .000000D+00 .000000D+00 .000000D+00*
 *                                                                      .640122D+00 .813757D+00 .000000D+00 .000000D+00 .000000D+00*
 *                                             227   S           1.00                                                              *
+                                                                       .161278D+00 .100000D+01 .000000D+00 .000000D+00 .000000D+00 
 *                                         228-230   P           1.00                                                              *
+                                                                       .110000D+01 .000000D+00 .100000D+01 .000000D+00 .000000D+00 
 *---------------------------------------------------------------------------------------------------------------------------------*
 *     H      5.55038 -7.69674 -1.52883                                                                                            *
+                                              231   S           1.00                                                               
+                                                                       .187311D+02 .334946D-01 .000000D+00 .000000D+00 .000000D+00 
 *                                                                      .282539D+01 .234727D+00 .000000D+00 .000000D+00 .000000D+00*
 *                                                                      .640122D+00 .813757D+00 .000000D+00 .000000D+00 .000000D+00*
 *                                             232   S           1.00                                                              *
+                                                                       .161278D+00 .100000D+01 .000000D+00 .000000D+00 .000000D+00 
 *                                         233-235   P           1.00                                                              *
+                                                                       .110000D+01 .000000D+00 .100000D+01 .000000D+00 .000000D+00 
 ***********************************************************************************************************************************
 There are   173 symmetry adapted basis functions of A'  symmetry.
 There are    62 symmetry adapted basis functions of A"  symmetry.
 Crude estimate of integral set expansion from redundant integrals=1.841.
 Integral buffers will be    131072 words long.
 Raffenetti 1 integral format.
 Two-electron integral symmetry is turned on.
   235 basis functions      413 primitive gaussians
    43 alpha electrons       43 beta electrons
       nuclear repulsion energy       646.2660505427 Hartrees.
 Leave Link  301 at Wed Dec 10 17:28:33 2003, MaxMem=   52428800 cpu:        .1
 (Enter /apps/gaussian/g98/l302.exe)
 One-electron integrals computed using PRISM.
 One-electron integral symmetry used in STVInt
 NBasis=   235 RedAO= T  NBF=   173    62
 NBsUse=   235 1.00D-04 NBFU=   173    62
 Leave Link  302 at Wed Dec 10 17:28:37 2003, MaxMem=   52428800 cpu:       2.1
 (Enter /apps/gaussian/g98/l303.exe)
 DipDrv:  MaxL=1.
 Leave Link  303 at Wed Dec 10 17:28:39 2003, MaxMem=   52428800 cpu:       1.3
 (Enter /apps/gaussian/g98/l401.exe)
 SCF N**3 symmetry information disabled.
 Projected INDO Guess.
 Initial guess orbital symmetries:
       Occupied  (A') (A') (A') (A') (A') (A') (A') (A') (A') (A')
                 (A') (A') (A') (A') (A') (A') (A') (A') (A') (A')
                 (A') (A') (A") (A') (A') (A') (A') (A") (A') (A")
                 (A') (A') (A') (A") (A') (A') (A') (A') (A") (A')
                 (A") (A') (A")
       Virtual   (A") (A") (A") (A') (A') (A') (A') (A') (A') (A")
                 (A') (A') (A') (A') (A") (A') (A') (A") (A') (A')
                 (A') (A') (A') (A') (A') (A') (A') (A') (A') (A')
                 (A') (A') (A') (A') (A') (A') (A') (A') (A') (A')
                 (A') (A') (A') (A') (A') (A') (A') (A') (A') (A')
                 (A') (A') (A') (A') (A') (A') (A') (A') (A') (A')
                 (A') (A') (A') (A') (A') (A') (A') (A') (A') (A')
                 (A') (A') (A') (A') (A') (A') (A') (A') (A') (A')
                 (A') (A') (A') (A') (A') (A') (A') (A') (A') (A')
                 (A') (A') (A') (A') (A') (A') (A') (A') (A') (A')
                 (A') (A') (A') (A') (A') (A') (A') (A') (A') (A')
                 (A') (A') (A') (A') (A') (A') (A') (A') (A') (A')
                 (A') (A') (A') (A') (A') (A') (A') (A') (A') (A')
                 (A') (A') (A') (A') (A') (A') (A') (A') (A') (A')
                 (A') (A') (A') (A") (A") (A") (A") (A") (A") (A")
                 (A") (A") (A") (A") (A") (A") (A") (A") (A") (A")
                 (A") (A") (A") (A") (A") (A") (A") (A") (A") (A")
                 (A") (A") (A") (A") (A") (A") (A") (A") (A") (A")
                 (A") (A") (A") (A") (A") (A") (A") (A") (A") (A")
                 (A") (A")
 Leave Link  401 at Wed Dec 10 17:28:43 2003, MaxMem=   52428800 cpu:       2.0
 (Enter /apps/gaussian/g98/l502.exe)
 IExCor=   0 DFT=F Ex=HF Corr=None ScaHFX= 1.0000
 ScaDFX=   .0000   .0000   .0000   .0000
 IRadAn=      0 IRanWt=     -1 IRanGd=            0 ICorTp=0
 Using DIIS extrapolation.
 Closed shell SCF:
 Requested convergence on RMS density matrix=1.00D-10 within  64 cycles.
 Requested convergence on MAX density matrix=1.00D-08.
 Integral symmetry usage will be decided dynamically.
 IEnd=    200221 IEndB=    200221 NGot=  52428800 MDV=  52288264
 LenX=  52288264
 Fock matrices will be formed incrementally for  20 cycles.
 Integral accuracy reduced to 1.0D-05 until final iterations.

 Cycle   1  Pass 0  IDiag 1:
 Petite list used in FoFDir.
 MinBra= 0 MaxBra= 2 Meth= 1.
 IRaf=       0 NMat=   1 IRICut=       1 DoRegI=T DoRafI=F ISym2E= 1 JSym2E=1.
 E= -.115825907857179D+04
 DIIS: error= 3.00D-01 at cycle   1.
 T= 2877. Gap=  .380 NK=0 IS=    1 IE=  235
          NO(<0.9)=   0  NV(>0.1)=   0  43.00e < EF  .00e >EF  Err=1.7D-11
 RMSDP=6.29D-03 MaxDP=1.83D-01

 Cycle   2  Pass 0  IDiag 1:
 RMSU=  5.90D-03    CP:  8.94D-01
 E= -.116062808126985D+04 Delta-E=       -2.369002698059
 DIIS: error= 2.54D-02 at cycle   2.
 Coeff:  .442D-01 -.104D+01
 T= 2658. Gap=  .387 NK=0 IS=    1 IE=  235
          NO(<0.9)=   0  NV(>0.1)=   0  43.00e < EF  .00e >EF  Err=9.9D-12
 RMSDP=1.44D-03 MaxDP=6.30D-02

 Cycle   3  Pass 0  IDiag 1:
 RMSU=  1.30D-03    CP:  8.83D-01  1.10D+00
 E= -.116068996993324D+04 Delta-E=        -.061888663387
 DIIS: error= 2.41D-02 at cycle   3.
 Coeff:  .188D-01 -.318D+00 -.701D+00
 T= 2309. Gap=  .386 NK=0 IS=    1 IE=  235
          NO(<0.9)=   0  NV(>0.1)=   0  43.00e < EF  .00e >EF  Err=9.8D-13
 RMSDP=5.57D-04 MaxDP=3.54D-02

 Cycle   4  Pass 0  IDiag 1:
 RMSU=  4.73D-04    CP:  8.80D-01  1.13D+00  8.21D-01
 E= -.116070349780679D+04 Delta-E=        -.013527873557
 DIIS: error= 3.74D-03 at cycle   4.
 Coeff: -.639D-02  .139D+00  .504D-01 -.118D+01
 T= 1181. Gap=  .384 NK=0 IS=    1 IE=  235
          NO(<0.9)=   0  NV(>0.1)=   0  43.00e < EF  .00e >EF  Err=0.0D+00
 RMSDP=2.37D-04 MaxDP=8.20D-03

 Cycle   5  Pass 0  IDiag 1:
 RMSU=  1.12D-04    CP:  8.78D-01  1.14D+00  9.24D-01  1.30D+00
 E= -.116070516885169D+04 Delta-E=        -.001671044900
 DIIS: error= 8.42D-04 at cycle   5.
 Coeff: -.167D-02  .316D-01  .380D-01 -.164D+00 -.904D+00
 RMSDP=5.31D-05 MaxDP=1.68D-03

 Cycle   6  Pass 0  IDiag 1:
 RMSU=  3.63D-05    CP:  8.78D-01  1.14D+00  9.30D-01  1.38D+00  1.07D+00
 E= -.116070525010804D+04 Delta-E=        -.000081256349
 DIIS: error= 2.67D-04 at cycle   6.
 Coeff:  .508D-03 -.119D-01  .109D-02  .121D+00 -.174D+00 -.937D+00
 RMSDP=2.25D-05 MaxDP=7.65D-04

 Cycle   7  Pass 0  IDiag 1:
 RMSU=  1.21D-05    CP:  8.78D-01  1.14D+00  9.34D-01  1.40D+00  1.21D+00
                    CP:  1.03D+00
 E= -.116070526742298D+04 Delta-E=        -.000017314940
 DIIS: error= 7.83D-05 at cycle   7.
 Coeff:  .197D-03 -.394D-02 -.343D-02  .258D-01  .596D-01 -.547D-01
 Coeff: -.102D+01
 RMSDP=8.31D-06 MaxDP=2.47D-04

 Initial convergence to 1.0D-05 achieved.  Increase integral accuracy.
 Cycle   8  Pass 1  IDiag 1:
 E= -.116070527222551D+04 Delta-E=        -.000004802531
 DIIS: error= 4.80D-05 at cycle   1.
 RMSDP=8.31D-06 MaxDP=2.47D-04

 Cycle   9  Pass 1  IDiag 1:
 RMSU=  1.62D-05    CP:  1.00D+00
 E= -.116070527288066D+04 Delta-E=        -.000000655144
 DIIS: error= 2.50D-05 at cycle   2.
 Coeff: -.135D+00 -.865D+00
 RMSDP=2.09D-06 MaxDP=6.57D-05

 Cycle  10  Pass 1  IDiag 1:
 RMSU=  1.92D-06    CP:  1.00D+00  1.05D+00
 E= -.116070527313326D+04 Delta-E=        -.000000252597
 DIIS: error= 1.93D-05 at cycle   3.
 Coeff:  .346D+00  .269D-01 -.137D+01
 RMSDP=2.74D-06 MaxDP=8.90D-05

 Cycle  11  Pass 1  IDiag 1:
 RMSU=  1.61D-06    CP:  1.00D+00  1.11D+00  2.05D+00
 E= -.116070527334774D+04 Delta-E=        -.000000214487
 DIIS: error= 7.89D-06 at cycle   4.
 Coeff:  .193D-02  .301D+00  .653D-01 -.137D+01
 RMSDP=1.68D-06 MaxDP=5.16D-05

 Cycle  12  Pass 1  IDiag 1:
 RMSU=  3.05D-07    CP:  1.00D+00  1.11D+00  2.83D+00  1.45D+00
 E= -.116070527339657D+04 Delta-E=        -.000000048823
 DIIS: error= 1.80D-06 at cycle   5.
 Coeff: -.277D-01  .727D-01  .143D+00 -.315D+00 -.873D+00
 RMSDP=3.18D-07 MaxDP=1.07D-05

 Cycle  13  Pass 1  IDiag 1:
 RMSU=  1.11D-07    CP:  1.00D+00  1.11D+00  2.95D+00  1.56D+00  1.23D+00
 E= -.116070527339880D+04 Delta-E=        -.000000002236
 DIIS: error= 8.22D-07 at cycle   6.
 Coeff:  .600D-02 -.811D-01 -.447D-01  .334D+00  .265D+00 -.148D+01
 RMSDP=1.32D-07 MaxDP=4.05D-06

 Cycle  14  Pass 1  IDiag 1:
 RMSU=  5.52D-08    CP:  1.00D+00  1.11D+00  2.96D+00  1.58D+00  1.51D+00
                    CP:  1.62D+00
 E= -.116070527339915D+04 Delta-E=        -.000000000351
 DIIS: error= 2.96D-07 at cycle   7.
 Coeff:  .317D-02 -.221D-01 -.187D-01  .866D-01  .109D+00 -.300D+00
 Coeff: -.857D+00
 RMSDP=2.37D-08 MaxDP=8.92D-07

 Cycle  15  Pass 1  IDiag 1:
 RMSU=  1.37D-08    CP:  1.00D+00  1.11D+00  2.96D+00  1.58D+00  1.53D+00
                    CP:  1.74D+00  1.17D+00
 E= -.116070527339916D+04 Delta-E=        -.000000000008
 DIIS: error= 1.24D-07 at cycle   8.
 Coeff: -.163D-02  .189D-01  .125D-01 -.788D-01 -.722D-01  .353D+00
 Coeff:  .117D+00 -.135D+01
 RMSDP=1.66D-08 MaxDP=5.77D-07

 Cycle  16  Pass 1  IDiag 1:
 RMSU=  7.79D-09    CP:  1.00D+00  1.11D+00  2.96D+00  1.58D+00  1.54D+00
                    CP:  1.80D+00  1.37D+00  1.45D+00
 E= -.116070527339918D+04 Delta-E=        -.000000000019
 DIIS: error= 3.00D-08 at cycle   9.
 Coeff: -.584D-03  .551D-02  .433D-02 -.219D-01 -.244D-01  .927D-01
 Coeff:  .106D+00 -.265D+00 -.897D+00
 RMSDP=4.56D-09 MaxDP=1.27D-07

 Cycle  17  Pass 1  IDiag 1:
 RMSU=  2.47D-09    CP:  1.00D+00  1.11D+00  2.96D+00  1.58D+00  1.54D+00
                    CP:  1.81D+00  1.38D+00  1.61D+00  1.23D+00
 E= -.116070527339918D+04 Delta-E=        -.000000000005
 DIIS: error= 1.16D-08 at cycle  10.
 Coeff:  .311D-03 -.380D-02 -.256D-02  .157D-01  .135D-01 -.700D-01
 Coeff: -.123D-01  .275D+00 -.546D-01 -.116D+01
 RMSDP=2.55D-09 MaxDP=5.38D-08

 Cycle  18  Pass 1  IDiag 1:
 RMSU=  1.07D-09    CP:  1.00D+00  1.11D+00  2.96D+00  1.58D+00  1.54D+00
                    CP:  1.81D+00  1.38D+00  1.68D+00  1.45D+00  1.27D+00
 E= -.116070527339916D+04 Delta-E=         .000000000019
 DIIS: error= 5.86D-09 at cycle  11.
[...]
 0125819,0.00045433,-0.00081203,0.06191588,-0.00004814,0.00016563,-0.00
 001974,0.00015292,0.00061573,0.00006269,0.00343048,0.00043741,0.001406
 37,-0.00074796,-0.00062744,-0.00030664,0.00032741,-0.00028849,0.000134
 23,0.00018579,0.00006320,0.00007617,-0.00618014,-0.01615268,-0.0025336
 3,-0.00041594,-0.37270402,-0.00017052,0.00354695,-0.01126320,0.0014541
 2,-0.00319625,0.00091666,-0.00131035,-0.00008719,0.00307099,-0.0000357
 5,-0.00122037,-0.00061879,-0.00050031,0.00155359,-0.00029040,0.0006369
 2,0.00307104,0.39673186,0.00034301,-0.00019868,-0.00045772,-0.00029827
 ,0.00024591,-0.00062674,-0.00511701,0.00082824,0.00651529,0.00035053,0
 .00042404,0.00020491,0.00022421,0.00021432,-0.00072771,-0.00020980,-0.
 00001548,0.00000197,0.00013434,0.01256383,0.00618915,-0.01187761,-0.00
 135204,-0.04334598,0.00201976,-0.01244451,0.00208094,-0.00387566,-0.00
 088904,0.00371744,0.00346848,-0.00036377,-0.00496288,0.00025648,-0.000
 08805,-0.00025077,-0.00081203,0.00018626,0.00038965,0.01430497,0.00125
 901,0.03288715,-0.00005739,0.00009892,-0.00007396,0.00303818,-0.001031
 28,-0.00315632,0.00021842,-0.00087999,0.00038381,-0.00011890,0.0001834
 3,0.00022120,-0.00006383,-0.00011663,-0.00009253,0.00008025,0.00005501
 ,0.00034695,-0.00156754,-0.00440609,-0.00313116,-0.01567521,0.01860925
 ,-0.00811096,-0.25394204,0.12481219,-0.08465554,0.00601807,-0.00243022
 ,-0.00018923,-0.00200541,0.00045756,-0.00069190,0.00001414,-0.00023425
 ,0.00001220,0.00020929,0.00059109,0.00007373,0.00054964,-0.00049634,0.
 00150378,0.26335921,0.00160271,0.00029698,0.00065705,-0.00201155,-0.00
 697309,-0.00082466,-0.00038198,-0.00069274,-0.00015660,-0.00013141,0.0
 0044902,-0.00005387,-0.00027827,-0.00028292,-0.00011408,0.00019950,-0.
 00063929,0.00008179,-0.00368780,-0.00157615,-0.00151186,-0.01453664,0.
 01426259,-0.00595950,0.12382473,-0.15730867,0.05076366,0.03156166,-0.0
 1070613,0.01293914,-0.00083037,0.00062568,-0.00034042,0.00006008,-0.00
 000353,0.00002463,0.00005517,0.00012683,0.00002262,0.00078748,0.000959
 73,0.00032284,-0.13580295,0.16050914,-0.00007396,0.00004055,0.00009269
 ,-0.00315632,-0.00042279,0.00944323,0.00038381,-0.00036077,-0.00056043
 ,0.00022120,0.00007520,-0.00056777,-0.00009253,-0.00004781,0.00012395,
 0.00034695,0.00002255,-0.00062381,-0.00313116,-0.00180634,0.00478645,-
 0.00811096,0.00762912,0.00078417,-0.08465554,0.05116848,-0.08215260,-0
 .00018923,-0.00099630,0.00640207,-0.00069190,0.00018758,-0.00060134,0.
 00001220,-0.00009603,-0.00001063,0.00007373,0.00024233,0.00005968,0.00
 150378,-0.00020348,-0.00250194,0.09501455,-0.05567430,0.07054848,0.000
 56074,-0.00208502,0.00148492,-0.01715556,-0.01667025,-0.00795365,-0.00
 192743,0.00450530,-0.00287757,-0.00045864,-0.00158848,-0.00025970,0.00
 014067,0.00038400,0.00011625,-0.00014866,0.00024104,-0.00000689,-0.000
 07839,0.00107036,0.00025683,0.00299189,0.00016430,-0.00273319,0.004076
 54,0.00242082,0.00012474,-0.26555480,-0.11752524,-0.09269588,-0.000031
 93,-0.00027542,0.00037327,-0.00002641,-0.00007530,-0.00000529,0.000023
 08,0.00008255,-0.00001187,0.00009303,0.00009141,-0.00020589,-0.0000519
 0,-0.00055170,0.00266311,0.27732969,0.00059167,0.00108924,0.00024256,0
 .01600296,0.01329611,0.00656064,0.00281524,-0.00236870,0.00115414,0.00
 079853,0.00065135,0.00032737,0.00015029,0.00021067,0.00006162,-0.00032
 540,0.00027521,-0.00013340,0.00108745,-0.00085699,0.00044582,0.0017649
 0,-0.00589518,0.00072355,-0.03242066,-0.01027814,-0.01329130,-0.117254
 90,-0.14084357,-0.04807027,-0.00054026,0.00015583,-0.00022149,-0.00013
 395,-0.00010090,-0.00005492,0.00018377,0.00008348,0.00007534,-0.001495
 46,-0.00076584,-0.00061308,0.00050653,0.00116323,0.00020766,0.12809743
 ,0.14456553,0.00148492,-0.00085478,-0.00245257,-0.00795365,-0.00683420
 ,-0.00101541,-0.00287757,0.00184701,0.00391195,-0.00025970,-0.00065122
 ,0.00006836,0.00011625,0.00015743,-0.00009523,-0.00000689,0.00009882,-
 0.00013468,0.00025683,0.00043881,-0.00059957,-0.00273319,0.00006736,0.
 00853828,0.00012474,0.00099245,0.00382341,-0.09269588,-0.04818110,-0.0
 7744930,0.00037327,-0.00011291,-0.00078939,-0.00000529,-0.00003087,-0.
 00001568,-0.00001187,0.00003384,0.00004716,-0.00020589,0.00003747,0.00
 051084,0.00266311,-0.00022618,-0.00545608,0.10195081,0.05251531,0.0704
 4338,-0.26461903,-0.11710227,-0.09023872,0.00329056,0.00177950,-0.0003
 3713,0.00190970,0.00039633,-0.00146210,0.00015858,0.00064292,0.0002979
 8,-0.00124464,0.00453367,-0.00458370,-0.01677747,-0.01776632,-0.009165
 65,-0.00008213,0.00070119,-0.00002392,0.00034185,-0.00005568,0.0001552
 2,0.00011129,-0.00041680,0.00008472,-0.00006577,0.00112059,0.00135609,
 0.00001745,-0.00017556,-0.00002656,-0.00002004,-0.00006581,-0.00000457
 ,0.00003076,0.00009110,-0.00000140,0.00004068,-0.00002826,-0.00000844,
 0.00003014,-0.00007363,-0.00004708,0.00049867,-0.00006674,0.00007793,0
 .27756531,-0.11722780,-0.14231417,-0.04805916,-0.03087605,-0.01030699,
 -0.01265806,0.00181005,-0.00650982,0.00074205,0.00094786,-0.00084452,0
 .00038859,0.00317465,-0.00142527,0.00130149,0.01690525,0.01478632,0.00
 693054,-0.00212795,0.00054939,-0.00087238,0.00034402,-0.00022351,0.000
 14104,0.00004405,0.00000153,0.00001806,-0.00145159,0.00175177,-0.00059
 510,0.00022245,-0.00085721,0.00009120,-0.00001160,-0.00008576,-0.00000
 475,-0.00011466,0.00007839,-0.00004701,0.00008937,-0.00000729,0.000036
 64,0.00003143,-0.00004163,0.00001288,0.00123365,-0.00026916,0.00050575
 ,0.12681874,0.14402615,-0.09023872,-0.04800769,-0.08149978,-0.00033713
 ,0.00072953,0.00397469,-0.00146210,0.00016248,0.00487670,0.00029798,0.
 00026358,-0.00044611,-0.00458370,0.00185864,0.00805696,-0.00916565,-0.
 00728355,0.00182217,-0.00002392,0.00028746,-0.00003358,0.00015522,-0.0
 0002283,0.00002686,0.00008472,-0.00017087,-0.00006063,0.00135609,0.000
 45940,-0.00281765,-0.00002656,-0.00007197,0.00007135,-0.00000457,-0.00
 002698,-0.00001077,-0.00000140,0.00003735,0.00003360,-0.00000844,-0.00
 001158,0.00005782,-0.00004708,-0.00003019,0.00012566,0.00007793,-0.000
 02736,0.00034053,0.10137502,0.05199110,0.07184744,0.00754984,0.0304509
 5,0.00061965,-0.00348166,0.00229976,-0.00583028,-0.00103356,0.00069490
 ,-0.00028746,-0.00439273,-0.00255675,-0.00419258,0.00700395,-0.0299538
 1,0.00109695,-0.06985022,-0.00521304,-0.00925669,-0.00011167,-0.000516
 16,0.00033992,-0.00027890,-0.00008232,-0.00018172,-0.00034212,0.000482
 52,0.00015584,0.00090075,0.00090339,0.00034403,0.00022145,0.00002089,0
 .00009567,0.00000546,-0.00001155,0.00000538,0.00003848,0.00001922,0.00
 000931,0.00001847,0.00000904,-0.00001533,0.00000323,0.00014940,-0.0000
 0077,-0.00001383,-0.00003293,-0.00007393,0.00003062,-0.00055167,0.0026
 5840,0.06315522,-0.00396190,-0.01316940,-0.00162424,0.00318438,0.00083
 908,0.00130548,0.00006010,0.00074424,0.00002464,-0.00339338,0.00053539
 ,-0.00139116,0.00388977,-0.01110830,0.00159466,-0.00425446,-0.37301310
 ,-0.00174417,0.00015556,0.00026015,0.00006377,-0.00004262,0.00001841,-
 0.00001747,0.00041662,-0.00005852,0.00017080,-0.00052615,-0.00086371,-
 0.00021570,-0.00020337,-0.00035527,-0.00008337,-0.00003244,-0.00010812
 ,-0.00001330,0.00005373,0.00016515,0.00002203,0.00000448,-0.00004554,0
 .00000184,0.00001587,-0.00010937,0.00000651,0.00006961,0.00001546,0.00
 002854,0.00048519,0.00109428,0.00019891,0.00443269,0.39490623,0.000619
 65,0.01248379,0.00629241,-0.00583028,0.00094282,0.00834959,-0.00028746
 ,0.00028488,-0.00045022,-0.00419258,-0.00104818,0.00411518,0.00109695,
 -0.01227998,0.00477793,-0.00925669,-0.00213716,-0.05106585,0.00033992,
 -0.00021161,-0.00080148,-0.00018172,-0.00003375,0.00008985,0.00015584,
 0.00019782,-0.00065835,0.00034403,0.00037036,0.00020263,0.00009567,0.0
 0000856,0.00002731,0.00000538,-0.00000473,-0.00000546,0.00000931,0.000
 00788,0.00001958,-0.00001533,0.00000371,0.00004958,-0.00000077,0.00006
 125,0.00000479,-0.00007393,-0.00001350,0.00013619,0.00265840,-0.000226
 17,-0.00536401,0.01295045,0.00181724,0.03687518,-0.00259771,-0.0044134
 2,-0.00338995,0.00033767,-0.00098537,0.00030858,0.00286160,-0.00102513
 ,-0.00306650,0.00589588,-0.00282279,0.00024943,-0.25620593,0.12444043,
 -0.08672010,-0.01580563,0.01899104,-0.00786927,-0.00001023,-0.00013578
 ,-0.00018472,0.00005127,0.00012549,0.00034808,-0.00004951,-0.00014490,
 -0.00007729,-0.00016422,0.00024731,0.00031076,0.00016343,0.00019737,-0
 .00004839,0.00002953,0.00006209,0.00001773,-0.00004986,-0.00008711,-0.
 00000325,0.00001314,0.00001715,-0.00001575,-0.00001323,0.00002665,-0.0
 0002248,0.00004232,-0.00002694,-0.00000611,-0.00103910,0.00085137,-0.0
 0050625,0.00047464,-0.00054974,0.00150547,0.26618883,-0.00343883,-0.00
 135509,-0.00140980,-0.00046234,-0.00091276,-0.00018954,-0.00201976,-0.
 00655752,-0.00082803,0.03153764,-0.01176985,0.01292929,0.12371573,-0.1
 5494422,0.05071897,-0.01523532,0.01463644,-0.00624593,0.00180793,0.000
 54971,0.00074119,0.00016462,-0.00064718,0.00006749,-0.00025634,-0.0002
 9491,-0.00010509,-0.00012722,0.00045446,-0.00005215,-0.00029362,-0.000
 21787,-0.00012037,-0.00004875,-0.00007651,-0.00001999,0.00004312,0.000
 12922,0.00001768,0.00015323,-0.00012027,0.00006282,0.00002343,-0.00000
 874,0.00000961,0.00008890,-0.00001152,0.00003645,-0.00079440,0.0004910
 7,-0.00032567,0.00086292,0.00089758,0.00035377,-0.13523747,0.15850791,
 -0.00338995,-0.00180934,0.00428143,0.00030858,-0.00040396,-0.00028853,
 -0.00306650,-0.00042027,0.00908438,0.00024943,-0.00115724,0.00538973,-
 0.08672010,0.05101607,-0.08022693,-0.00786927,0.00778564,0.00016330,-0
 .00018472,-0.00005567,0.00036463,0.00034808,0.00005144,-0.00065508,-0.
 00007729,-0.00005941,0.00010733,0.00031076,0.00010139,-0.00079483,-0.0
 0004839,0.00008092,0.00026163,0.00001773,0.00002545,-0.00000645,-0.000
 00325,-0.00003571,-0.00004328,-0.00001575,0.00000703,0.00004509,-0.000
 02248,0.00001093,0.00003240,-0.00000611,-0.00001104,0.00005472,-0.0005
 0625,0.00034903,-0.00001178,0.00150547,-0.00022537,-0.00258038,0.09650
 640,-0.05544247,0.07035072,0.00021333,0.00080154,0.00033319,-0.0016779
 4,0.00433556,-0.00285186,-0.01643751,-0.01573231,-0.00877854,-0.272690
 64,-0.12127473,-0.09212879,0.00604787,0.00269641,-0.00023791,0.0027915
 0,0.00058800,-0.00311951,-0.00286928,-0.00210056,-0.00002019,0.0005591
 4,-0.00014280,0.00022704,-0.00036150,-0.00015383,-0.00000564,-0.000596
 21,-0.00102080,-0.00024522,0.00226660,-0.00106163,0.00105212,-0.000007
 31,-0.00019604,0.00002855,0.00064373,0.00029786,0.00029422,0.00003793,
 0.00009139,-0.00009510,0.00002446,0.00005843,-0.00001753,-0.00032321,0
 .00024507,-0.00021910,-0.00018817,-0.00011767,0.00039899,0.00010549,0.
 00017570,0.00006179,-0.00010478,-0.00051405,0.00267686,0.28257062,0.00
 073139,-0.00070818,0.00029985,0.00327006,-0.00238290,0.00134061,0.0150
 0335,0.01608070,0.00615083,-0.12323824,-0.14527913,-0.05052322,-0.0305
 0085,-0.00909654,-0.01250425,0.00117501,-0.00634672,0.00048171,0.00103
 504,0.00058493,0.00042433,-0.00087637,0.00023953,-0.00035928,0.0002928
 5,0.00044880,0.00012006,0.00077139,0.00053180,0.00031624,0.00020893,-0
 .00367178,0.00008565,-0.00001311,0.00024194,-0.00000538,-0.00012007,-0
 .00042713,-0.00004923,-0.00003683,0.00000343,-0.00001510,-0.00003284,-
 0.00002849,-0.00001346,0.00029141,-0.00018339,0.00011947,-0.00005374,0
 .00008762,-0.00002203,-0.00141076,-0.00069095,-0.00057836,0.00049593,0
 .00123267,0.00020331,0.13300655,0.14942966,0.00033319,0.00032860,-0.00
 046281,-0.00285186,0.00177742,0.00410928,-0.00877854,-0.00644968,0.001
 37657,-0.09212879,-0.04971825,-0.08573592,-0.00023791,0.00110543,0.006
 53065,-0.00311951,0.00024106,0.00912185,-0.00002019,-0.00086116,-0.002
 82830,0.00022704,-0.00005854,0.00009841,-0.00000564,-0.00006306,-0.000
 35006,-0.00024522,-0.00041849,-0.00009859,0.00105212,-0.00043523,0.000
 13156,0.00002855,-0.00008037,-0.00006525,0.00029422,0.00012211,0.00004
 667,-0.00009510,0.00003747,0.00023090,-0.00001753,0.00002395,0.0000600
 4,-0.00021910,0.00010047,0.00012140,0.00039899,-0.00004824,-0.00099783
 ,0.00006179,0.00007203,-0.00001989,0.00267686,-0.00021074,-0.00553687,
 0.10267249,0.05452787,0.07421982,-0.00000165,0.00000262,0.00000092,-0.
 00000601,0.00000088,-0.00000366,0.00005333,0.00003207,0.00002189,0.000
 01459,-0.00000342,0.00001449,-0.00000404,0.00000510,0.00000389,-0.0000
 0196,-0.00000119,-0.00000020,-0.00039683,-0.00019791,-0.00015098,0.000
 11297,0.00007584,0.00001387,-0.00002578,-0.00003487,-0.00001506,0.0000
 1434,0.00002227,0.00000959,0.00027490,0.00048145,0.00027416,-0.4182028
 9,-0.04534714,-0.14121324,-0.00044858,-0.00107612,-0.00041096,-0.00007
 156,-0.00004131,0.00002051,0.00000643,0.00000081,0.00000154,0.00000204
 ,0.00000109,0.00000062,0.00000164,0.00000269,-0.00000035,0.00000064,0.
 00000385,-0.00000099,-0.00000206,0.00000641,-0.00000369,0.00001545,-0.
 00000794,-0.00000780,0.44312723,0.00007922,-0.00002232,0.00003248,-0.0
 0016287,0.00006580,-0.00006677,0.00027814,0.00031282,0.00011403,-0.000
 04911,-0.00016401,-0.00002013,0.00005839,0.00009159,0.00002394,-0.0000
 7142,-0.00006657,-0.00002928,-0.00182011,-0.00052299,-0.00074618,0.000
 05652,0.00058901,0.00002317,0.00012434,-0.00019031,0.00005098,0.000080
 83,-0.00011033,0.00003314,0.00310987,0.00025770,0.00127493,-0.09854836
 ,-0.03694131,-0.04040126,-0.00508918,-0.00013623,-0.00208638,0.0002246
 0,-0.00033395,0.00009208,0.00004278,0.00001752,0.00001754,0.00000685,-
 0.00002686,0.00000281,0.00000891,0.00000741,0.00000365,0.00000672,0.00
 001249,0.00000276,-0.00000032,-0.00001279,-0.00000013,0.00002457,-0.00
 006825,0.00001007,0.05814841,0.03653085,0.00000092,0.00000107,-0.00000
 351,-0.00000366,0.00000036,0.00000142,0.00002189,0.00001315,0.00000891
 ,0.00001449,-0.00000140,-0.00001482,0.00000389,0.00000209,-0.00001194,
 -0.00000020,-0.00000049,-0.00000155,-0.00015098,-0.00008113,-0.0000904
 5,0.00001387,0.00003109,0.00008483,-0.00001506,-0.00001429,0.00000479,
 0.00000959,0.00000913,-0.00000512,0.00027416,0.00019738,-0.00028144,-0
 .14121324,-0.01859069,-0.13164228,-0.00041096,-0.00044117,0.00038537,0
 .00002051,-0.00001694,-0.00011319,0.00000154,0.00000033,0.00000331,0.0
 0000062,0.00000045,0.00000077,-0.00000035,0.00000110,0.00000235,-0.000
 00099,0.00000158,0.00000265,-0.00000369,0.00000263,0.00000543,-0.00000
 780,-0.00000326,0.00003127,0.15349456,0.02383874,0.13164443,-0.0000569
 9,0.00001785,-0.00002534,0.00011611,-0.00003067,0.00004862,-0.00012752
 ,-0.00014603,-0.00003737,0.00002206,0.00008108,0.00001454,-0.00002308,
 -0.00002515,-0.00000623,0.00003310,0.00003531,0.00001396,0.00070614,0.
 00031931,0.00035650,0.00002326,-0.00029564,-0.00016595,-0.00011584,0.0
 0005881,-0.00007257,-0.00004004,0.00012330,-0.00001114,-0.00048888,-0.
 00061534,-0.00041724,-0.07185850,0.01367632,-0.00466179,0.00009703,0.0
 0039257,0.00073409,-0.00014418,-0.00003730,0.00017926,-0.00003093,-0.0
 0002219,-0.00000674,0.00000524,0.00003031,0.00000585,0.00000496,0.0000
 0286,0.00000201,-0.00000193,0.00000965,-0.00000148,-0.00000902,0.00001
 385,-0.00000565,-0.00000758,0.00000133,-0.00001285,0.00091793,0.021736
 80,-0.04155337,0.06782820,-0.00007749,0.00003263,-0.00004585,0.0001627
 6,-0.00007792,0.00007806,-0.00018782,-0.00022828,-0.00004067,0.0000252
 0,0.00010570,-0.00001115,-0.00002142,-0.00004301,-0.00002441,0.0000534
 5,0.00003414,0.00002048,0.00067454,-0.00011090,0.00050978,0.00032910,-
 0.00036034,-0.00030515,-0.00028233,0.00004737,-0.00018102,-0.00002425,
 0.00020698,-0.00000650,-0.00050439,-0.00151937,-0.00208910,0.02200363,
 -0.12562050,0.21765527,0.00046979,0.00119321,0.00475394,-0.00047381,0.
 00012663,0.00025893,-0.00000319,-0.00001998,0.00001220,0.00000745,0.00
 004708,0.00001572,0.00000883,0.00000569,0.00000846,-0.00000296,0.00001
 690,0.00000236,-0.00001531,0.00001510,0.00000050,-0.00001533,0.0000012
 0,0.00002793,-0.00295371,0.00035536,-0.00999528,-0.01763989,0.11847229
 ,-0.00001438,0.00000370,-0.00001301,0.00002936,-0.00002125,0.00001717,
 -0.00006713,-0.00008043,-0.00001382,0.00000432,0.00002200,-0.00000582,
 -0.00000328,-0.00001677,-0.00000797,0.00001250,0.00000568,0.00000325,0
 .00040211,0.00010358,0.00023691,0.00000319,-0.00000271,-0.00017393,-0.
 00000854,-0.00000848,-0.00002558,-0.00002974,0.00001321,-0.00002178,-0
 .00027488,-0.00099723,-0.00059107,-0.01523147,0.16176370,-0.39067363,0
 .00017719,0.00144466,0.00109751,-0.00007008,0.00006920,0.00015381,-0.0
 0001874,-0.00000330,0.00000674,-0.00000364,0.00000059,0.00000627,-0.00
 000132,-0.00000213,0.00000260,-0.00000132,0.,0.00000156,-0.00000189,0.
 00000062,0.00000267,-0.00000974,0.00000932,0.00000632,0.00282123,0.008
 93637,-0.01315465,0.01641191,-0.18700266,0.42544851,-0.00005518,0.0000
 1531,-0.00001622,0.00010635,-0.00003676,0.00003927,-0.00012374,-0.0001
 6046,-0.00007096,0.00001775,0.00007320,0.00000869,-0.00002039,-0.00002
 968,-0.00000601,0.00003162,0.00002913,0.00001400,0.00085420,0.00030013
 ,0.00025188,-0.00015527,-0.00021247,0.00018434,-0.00011191,0.00003594,
 -0.00001252,-0.00005148,0.00009709,-0.00001813,-0.00088526,-0.00113826
 ,0.00012730,-0.23889532,0.12329074,0.15425043,0.00104559,0.00129368,-0
 .00078525,0.00005724,0.00002201,-0.00027444,-0.00002510,-0.00001812,-0
 .00002464,0.00000685,0.00002200,-0.00000527,0.00000414,0.00000054,-0.0
 0000049,-0.00000161,0.00000687,-0.00000165,-0.00000703,0.00001030,-0.0
 0000391,-0.00001202,0.00000749,-0.00000523,-0.02538014,0.02175440,0.02
 950425,0.00315045,-0.00153287,-0.00412568,0.26045028,-0.00008737,0.000
 03263,-0.00002174,0.00017071,-0.00007792,0.00005866,-0.00016232,-0.000
 22828,-0.00010287,0.00001013,0.00010570,0.00002563,-0.00003239,-0.0000
 4301,0.00000235,0.00005244,0.00003414,0.00002294,0.00083826,-0.0001109
 0,0.00011042,0.00002020,-0.00036034,0.00044835,-0.00032815,0.00004737,
 -0.00006925,-0.00002183,0.00020698,-0.00001239,-0.00182568,-0.00151937
 ,0.00113386,0.16845479,-0.12562050,-0.13957421,0.00367163,0.00119321,-
 0.00305611,-0.00015570,0.00012663,-0.00051701,0.00000629,-0.00001998,-
 0.00001092,0.00001634,0.00004708,-0.00000597,0.00001223,0.00000569,0.0
 0000018,-0.00000045,0.00001690,-0.00000376,-0.00001056,0.00001510,-0.0
 0001111,0.00000869,0.00000120,-0.00003066,-0.00911990,0.00035536,0.005
 04554,-0.01768714,0.00732002,0.01576232,-0.14383021,0.11847229,-0.0000
 2718,0.00000989,-0.00001482,0.00005852,-0.00000639,0.00002694,-0.00004
 121,-0.00004523,-0.00001760,0.00001891,0.00004125,-0.00000151,-0.00000
 896,-0.00000571,-0.00001066,0.00001546,0.00002075,0.00000473,0.0002062
 8,0.00015037,0.00008885,0.00001519,-0.00020559,0.00000460,-0.00007655,
 0.00004732,-0.00002950,0.00000047,0.00007714,-0.00001034,-0.00001506,0
 .00027832,-0.00019469,0.16482010,-0.10561216,-0.22363681,-0.00022836,-
 0.00075336,0.00014895,-0.00002511,-0.00007547,-0.00004760,-0.00001265,
 -0.00001323,0.00000092,0.00000421,0.00002085,0.00000465,0.00000284,0.0
 0000352,0.00000342,-0.00000180,0.00000678,0.00000124,-0.00000767,0.000
 00928,0.00000068,-0.00000834,-0.00000570,0.00001077,-0.01487034,0.0088
 9344,0.01314342,0.02921099,-0.02364183,-0.02230206,-0.17902975,0.12080
 576,0.23282643\\0.00001849,-0.00001162,0.00000758,0.00000390,-0.000007
 59,0.00000160,0.00000369,0.00000035,0.00000151,-0.00000061,0.,-0.00000
 025,-0.00000225,-0.00000339,-0.00000092,-0.00001722,0.00001588,-0.0000
 0706,-0.00000060,-0.00000105,-0.00000024,0.00000196,0.00000064,0.00000
 080,-0.00000280,0.00000176,-0.00000115,-0.00000115,0.00000296,-0.00000
 047,-0.00000190,-0.00000033,-0.00000078,-0.00000115,0.00000085,-0.0000
 0047,0.00000048,0.00000098,0.00000019,-0.00000070,-0.00000037,-0.00000
 029,-0.00000044,-0.00000101,-0.00000018,0.00000002,0.00000111,0.,-0.00
 000029,0.00000018,-0.00000012,-0.00000085,0.00000031,-0.00000035,0.000
 00034,0.00000057,0.00000014,-0.00000003,0.00000062,-0.00000001,0.00000
 030,0.00000006,0.00000012,0.00000068,-0.00000044,-0.00000051,0.0000001
 3,-0.00000044,0.00000084\\\@


 I LOVE THOSE WHO LONG FOR THE IMPOSSIBLE.

                                 -- GOETHE
 Job cpu time:  0 days  1 hours  9 minutes 37.2 seconds.
 File lengths (MBytes):  RWF=  179 Int=    0 D2E=    0 Chk=   11 Scr=    1
 Normal termination of Gaussian 98.
