 Entering Gaussian System, Link 0=/prod/G03/g03e1/g03
 Initial command:
 /prod/G03/g03e1/l1.exe /tmp/doria/550495.200908161357/Gau-27054.inp -scrdir=/tmp/doria/550495.200908161357/
 Entering Link 1 = /prod/G03/g03e1/l1.exe PID=     27055.
  
 Copyright (c) 1988,1990,1992,1993,1995,1998,2003,2004,2007, Gaussian, Inc.
                  All Rights Reserved.
  
 This is the Gaussian(R) 03 program.  It is based on the
 the Gaussian(R) 98 system (copyright 1998, Gaussian, Inc.),
 the Gaussian(R) 94 system (copyright 1995, Gaussian, Inc.),
 the Gaussian 92(TM) system (copyright 1992, Gaussian, Inc.),
 the Gaussian 90(TM) system (copyright 1990, Gaussian, Inc.),
 the Gaussian 88(TM) system (copyright 1988, Gaussian, Inc.),
 the Gaussian 86(TM) system (copyright 1986, Carnegie Mellon
 University), and the Gaussian 82(TM) system (copyright 1983,
 Carnegie Mellon University). Gaussian is a federally registered
 trademark of Gaussian, Inc.
  
 This software contains proprietary and confidential information,
 including trade secrets, belonging to Gaussian, Inc.
  
 This software is provided under written license and may be
 used, copied, transmitted, or stored only in accord with that
 written license.
  
 The following legend is applicable only to US Government
 contracts under FAR:
  
                    RESTRICTED RIGHTS LEGEND
  
 Use, reproduction and disclosure by the US Government is
 subject to restrictions as set forth in subparagraphs (a)
 and (c) of the Commercial Computer Software - Restricted
 Rights clause in FAR 52.227-19.
  
 Gaussian, Inc.
 340 Quinnipiac St., Bldg. 40, Wallingford CT 06492
  
  
 ---------------------------------------------------------------
 Warning -- This program may not be used in any manner that
 competes with the business of Gaussian, Inc. or will provide
 assistance to any competitor of Gaussian, Inc.  The licensee
 of this program is prohibited from giving any competitor of
 Gaussian, Inc. access to this program.  By using this program,
 the user acknowledges that Gaussian, Inc. is engaged in the
 business of creating and licensing software in the field of
 computational chemistry and represents and warrants to the
 licensee that it is not a competitor of Gaussian, Inc. and that
 it will not use this program in any manner prohibited above.
 ---------------------------------------------------------------
  

 Cite this work as:
 Gaussian 03, Revision E.01,
 M. J. Frisch, G. W. Trucks, H. B. Schlegel, G. E. Scuseria, 
 M. A. Robb, J. R. Cheeseman, J. A. Montgomery, Jr., T. Vreven, 
 K. N. Kudin, J. C. Burant, J. M. Millam, S. S. Iyengar, J. Tomasi, 
 V. Barone, B. Mennucci, M. Cossi, G. Scalmani, N. Rega, 
 G. A. Petersson, H. Nakatsuji, M. Hada, M. Ehara, K. Toyota, 
 R. Fukuda, J. Hasegawa, M. Ishida, T. Nakajima, Y. Honda, O. Kitao, 
 H. Nakai, M. Klene, X. Li, J. E. Knox, H. P. Hratchian, J. B. Cross, 
 V. Bakken, C. Adamo, J. Jaramillo, R. Gomperts, R. E. Stratmann, 
 O. Yazyev, A. J. Austin, R. Cammi, C. Pomelli, J. W. Ochterski, 
 P. Y. Ayala, K. Morokuma, G. A. Voth, P. Salvador, J. J. Dannenberg, 
 V. G. Zakrzewski, S. Dapprich, A. D. Daniels, M. C. Strain, 
 O. Farkas, D. K. Malick, A. D. Rabuck, K. Raghavachari, 
 J. B. Foresman, J. V. Ortiz, Q. Cui, A. G. Baboul, S. Clifford, 
 J. Cioslowski, B. B. Stefanov, G. Liu, A. Liashenko, P. Piskorz, 
 I. Komaromi, R. L. Martin, D. J. Fox, T. Keith, M. A. Al-Laham, 
 C. Y. Peng, A. Nanayakkara, M. Challacombe, P. M. W. Gill, 
 B. Johnson, W. Chen, M. W. Wong, C. Gonzalez, and J. A. Pople, 
 Gaussian, Inc., Wallingford CT, 2004.
 
 ******************************************
 Gaussian 03:  AM64L-G03RevE.01 11-Sep-2007
                16-Aug-2009 
 ******************************************
 %nproc=4
 Will use up to    4 processors via shared memory.
 %mem=1GB
 %chk=/home/doria/LUIS/vanadocenos/VF_III_mo.chk
 ------------------------------------------------------------
 # b3lyp/3-21G* nosymm nofmm maxdisk=80GB gfoldprint pop=full
 ------------------------------------------------------------
 1/38=1/1;
 2/15=1,17=6,18=5,40=1/2;
 3/5=5,7=1,11=2,16=1,24=1,25=1,30=1,49=2048,74=-5/1,2,3;
 4//1;
 5/5=2,32=1,38=5/2;
 6/7=3,28=1/1;
 99/5=1,9=1/99;
 --------------------------------------------
 Optimización Vanadoceno-F funcional densidad
 --------------------------------------------
 Symbolic Z-matrix:
 Charge =  0 Multiplicity = 3
 6                    -11.30346  -16.00106   5.49223 
 6                    -12.49316  -20.38416   6.66006 
 6                    -12.27203  -15.80403   6.51619 
 6                    -12.98734  -20.26483   5.33079 
 6                    -13.55814  -16.10315   5.95963 
 6                    -14.15552  -19.43618   5.37541 
 6                    -13.36753  -16.51528   4.60488 
 6                    -14.35211  -19.02333   6.72908 
 6                    -11.96334  -16.47159   4.32247 
 6                    -13.30566  -19.59633   7.52284 
 9                    -10.68376  -18.45429   6.33112 
 1                    -10.23614  -15.93153   5.62128 
 1                    -11.58047  -20.88112   6.94414 
 1                    -12.07714  -15.45051   7.51586 
 1                    -12.58175  -20.74736   4.45617 
 1                    -14.5053  -15.99358   6.46117 
 1                    -14.79732  -19.20253   4.54225 
 1                    -14.14569  -16.77136   3.90522 
 1                    -15.16817  -18.42343   7.09625 
 1                    -11.49539  -16.7089   3.38066 
 1                    -13.1819  -19.48726   8.58824 
 23                   -12.4047  -18.08319   5.97104 
 
                          Input orientation:                          
 ---------------------------------------------------------------------
 Center     Atomic     Atomic              Coordinates (Angstroms)
 Number     Number      Type              X           Y           Z
 ---------------------------------------------------------------------
    1          6             0      -11.303461  -16.001055    5.492228
    2          6             0      -12.493159  -20.384158    6.660059
    3          6             0      -12.272028  -15.804033    6.516194
    4          6             0      -12.987337  -20.264834    5.330791
    5          6             0      -13.558137  -16.103145    5.959628
    6          6             0      -14.155518  -19.436180    5.375406
    7          6             0      -13.367527  -16.515285    4.604881
    8          6             0      -14.352106  -19.023327    6.729082
    9          6             0      -11.963336  -16.471594    4.322474
   10          6             0      -13.305663  -19.596329    7.522844
   11          9             0      -10.683763  -18.454286    6.331119
   12          1             0      -10.236139  -15.931530    5.621278
   13          1             0      -11.580472  -20.881122    6.944141
   14          1             0      -12.077139  -15.450512    7.515857
   15          1             0      -12.581748  -20.747364    4.456175
   16          1             0      -14.505302  -15.993576    6.461175
   17          1             0      -14.797316  -19.202532    4.542251
   18          1             0      -14.145690  -16.771359    3.905218
   19          1             0      -15.168173  -18.423429    7.096247
   20          1             0      -11.495389  -16.708898    3.380664
   21          1             0      -13.181895  -19.487260    8.588244
   22         23             0      -12.404702  -18.083191    5.971043
 ---------------------------------------------------------------------
                    Distance matrix (angstroms):
                    1          2          3          4          5
     1  C    0.000000
     2  C    4.689435   0.000000
     3  C    1.423182   4.587716   0.000000
     4  C    4.587081   1.423167   4.670717   0.000000
     5  C    2.304875   4.466750   1.432938   4.247459   0.000000
     6  C    4.466314   2.304872   4.247520   1.432936   3.436175
     7  C    2.304818   4.467265   2.314976   3.838047   1.428822
     8  C    4.467457   2.304845   3.838737   2.314984   3.122484
     9  C    1.423083   4.588374   2.313728   4.056347   2.315042
    10  C    4.588922   1.423108   4.057494   2.313726   3.835326
    11  F    2.665728   2.665806   3.095267   3.095996   3.732010
    12  H    1.077341   5.098931   2.227549   5.141109   3.343591
    13  H    5.099004   1.077346   5.141811   2.227550   5.263980
    14  H    2.235341   5.024572   1.078093   5.364762   2.245247
    15  H    5.023432   2.235368   5.364338   1.078096   4.978200
    16  H    3.345250   4.833786   2.241978   4.671791   1.077347
    17  H    4.833108   3.345219   4.671544   2.241942   3.626392
    18  H    3.345181   4.834493   3.356117   3.946949   2.238823
    19  H    4.834953   3.345208   3.947829   3.356137   3.044312
    20  H    2.235303   5.025685   3.354623   4.321294   3.357517
    21  H    5.026674   2.235326   4.322894   3.354620   4.301560
    22  V    2.403599   2.403543   2.347201   2.347116   2.291533
                    6          7          8          9         10
     6  C    0.000000
     7  C    3.121901   0.000000
     8  C    1.428822   3.431020   0.000000
     9  C    3.834462   1.432974   4.243740   0.000000
    10  C    2.315036   4.243957   1.432980   4.669923   0.000000
    11  F    3.732370   3.733927   3.733487   3.098876   3.098198
    12  H    5.263512   3.343565   5.265702   2.227503   5.144772
    13  H    3.343598   5.265571   3.343592   5.144284   2.227526
    14  H    4.978628   3.357473   4.308073   3.354587   4.324016
    15  H    2.245204   4.306977   3.357466   4.322328   3.354608
    16  H    3.626674   2.238870   3.045428   3.356208   3.942855
    17  H    1.077332   3.044588   2.238874   3.941797   3.356194
    18  H    3.043488   1.077330   3.617758   2.242015   4.666189
    19  H    2.238845   3.618044   1.077336   4.666311   2.242013
    20  H    4.300389   2.245238   4.972858   1.078097   5.363954
    21  H    3.357511   4.973357   2.245242   5.364319   1.078096
    22  V    2.291445   2.291672   2.291476   2.347302   2.347212
                   11         12         13         14         15
    11  F    0.000000
    12  H    2.658672   0.000000
    13  H    2.658837   5.296759   0.000000
    14  H    3.516782   2.685161   5.483162   0.000000
    15  H    3.517950   5.481934   2.685222   6.137827   0.000000
    16  H    4.547106   4.351440   5.716292   2.702452   5.506232
    17  H    4.547663   5.715600   4.351416   5.506301   2.702343
    18  H    4.549965   4.351409   5.718876   4.365805   4.307909
    19  H    4.549319   5.719270   4.351435   4.309153   4.365804
    20  H    3.522826   2.685212   5.487537   4.361398   4.318114
    21  H    3.521692   5.488495   2.685234   4.320397   4.361426
    22  V    1.796941   3.074841   3.074848   3.069975   3.069851
                   16         17         18         19         20
    16  H    0.000000
    17  H    3.750325   0.000000
    18  H    2.695771   2.596349   0.000000
    19  H    2.597480   2.695817   3.735970   0.000000
    20  H    4.365869   4.297699   2.702435   5.498592   0.000000
    21  H    4.299030   4.365858   5.498705   2.702423   6.138606
    22  V    3.003205   3.003160   3.003261   3.003101   3.070113
                   21         22
    21  H    0.000000
    22  V    3.070046   0.000000
 Symmetry turned off by external request.
 Stoichiometry    C10H10FV(3)
 Framework group  C1[X(C10H10FV)]
 Deg. of freedom    60
 Full point group                 C1
 Rotational constants (GHZ):      1.6078850      0.8403464      0.7375212
 Standard basis: 3-21G* (6D, 7F)
 ***********************************************************************************************************************************
 *             ATOMIC CENTER             *        ATOMIC ORBITAL       *                     GAUSSIAN FUNCTIONS                    *
 ***********************************************************************************************************************************
 *                                       * FUNCTION    SHELL    SCALE  *                                                           *
 *    ATOM   X-COORD  Y-COORD  Z-COORD   *  NUMBER     TYPE     FACTOR *  EXPONENT    S-COEF      P-COEF      D-COEF      F-COEF   *
 ***********************************************************************************************************************************
 *     C    -21.36045-30.23761 10.37881                                                                                            *
+                                                1   S           1.00                                                               
+                                                                      0.172256D+030.617669D-010.000000D+000.000000D+000.000000D+00 
 *                                                                     0.259109D+020.358794D+000.000000D+000.000000D+000.000000D+00*
 *                                                                     0.553335D+010.700713D+000.000000D+000.000000D+000.000000D+00*
 *                                           2-  5   SP          1.00                                                              *
+                                                                      0.366498D+01-.395895D+000.236460D+000.000000D+000.000000D+00 
 *                                                                     0.770545D+000.121583D+010.860619D+000.000000D+000.000000D+00*
 *                                           6-  9   SP          1.00                                                              *
+                                                                      0.195857D+000.100000D+010.100000D+010.000000D+000.000000D+00 
 *---------------------------------------------------------------------------------------------------------------------------------*
 *     C    -23.60865-38.52048 12.58569                                                                                            *
+                                               10   S           1.00                                                               
+                                                                      0.172256D+030.617669D-010.000000D+000.000000D+000.000000D+00 
 *                                                                     0.259109D+020.358794D+000.000000D+000.000000D+000.000000D+00*
 *                                                                     0.553335D+010.700713D+000.000000D+000.000000D+000.000000D+00*
 *                                          11- 14   SP          1.00                                                              *
+                                                                      0.366498D+01-.395895D+000.236460D+000.000000D+000.000000D+00 
 *                                                                     0.770545D+000.121583D+010.860619D+000.000000D+000.000000D+00*
 *                                          15- 18   SP          1.00                                                              *
+                                                                      0.195857D+000.100000D+010.100000D+010.000000D+000.000000D+00 
 *---------------------------------------------------------------------------------------------------------------------------------*
 *     C    -23.19077-29.86529 12.31382                                                                                            *
+                                               19   S           1.00                                                               
+                                                                      0.172256D+030.617669D-010.000000D+000.000000D+000.000000D+00 
 *                                                                     0.259109D+020.358794D+000.000000D+000.000000D+000.000000D+00*
 *                                                                     0.553335D+010.700713D+000.000000D+000.000000D+000.000000D+00*
 *                                          20- 23   SP          1.00                                                              *
+                                                                      0.366498D+01-.395895D+000.236460D+000.000000D+000.000000D+00 
 *                                                                     0.770545D+000.121583D+010.860619D+000.000000D+000.000000D+00*
 *                                          24- 27   SP          1.00                                                              *
+                                                                      0.195857D+000.100000D+010.100000D+010.000000D+000.000000D+00 
 *---------------------------------------------------------------------------------------------------------------------------------*
 *     C    -24.54251-38.29499 10.07374                                                                                            *
+                                               28   S           1.00                                                               
+                                                                      0.172256D+030.617669D-010.000000D+000.000000D+000.000000D+00 
 *                                                                     0.259109D+020.358794D+000.000000D+000.000000D+000.000000D+00*
 *                                                                     0.553335D+010.700713D+000.000000D+000.000000D+000.000000D+00*
 *                                          29- 32   SP          1.00                                                              *
+                                                                      0.366498D+01-.395895D+000.236460D+000.000000D+000.000000D+00 
 *                                                                     0.770545D+000.121583D+010.860619D+000.000000D+000.000000D+00*
 *                                          33- 36   SP          1.00                                                              *
+                                                                      0.195857D+000.100000D+010.100000D+010.000000D+000.000000D+00 
 *---------------------------------------------------------------------------------------------------------------------------------*
 *     C    -25.62117-30.43053 11.26206                                                                                            *
+                                               37   S           1.00                                                               
+                                                                      0.172256D+030.617669D-010.000000D+000.000000D+000.000000D+00 
 *                                                                     0.259109D+020.358794D+000.000000D+000.000000D+000.000000D+00*
 *                                                                     0.553335D+010.700713D+000.000000D+000.000000D+000.000000D+00*
 *                                          38- 41   SP          1.00                                                              *
+                                                                      0.366498D+01-.395895D+000.236460D+000.000000D+000.000000D+00 
 *                                                                     0.770545D+000.121583D+010.860619D+000.000000D+000.000000D+00*
 *                                          42- 45   SP          1.00                                                              *
+                                                                      0.195857D+000.100000D+010.100000D+010.000000D+000.000000D+00 
 *---------------------------------------------------------------------------------------------------------------------------------*
 *     C    -26.75005-36.72906 10.15805                                                                                            *
+                                               46   S           1.00                                                               
+                                                                      0.172256D+030.617669D-010.000000D+000.000000D+000.000000D+00 
 *                                                                     0.259109D+020.358794D+000.000000D+000.000000D+000.000000D+00*
 *                                                                     0.553335D+010.700713D+000.000000D+000.000000D+000.000000D+00*
 *                                          47- 50   SP          1.00                                                              *
+                                                                      0.366498D+01-.395895D+000.236460D+000.000000D+000.000000D+00 
 *                                                                     0.770545D+000.121583D+010.860619D+000.000000D+000.000000D+00*
 *                                          51- 54   SP          1.00                                                              *
+                                                                      0.195857D+000.100000D+010.100000D+010.000000D+000.000000D+00 
 *---------------------------------------------------------------------------------------------------------------------------------*
 *     C    -25.26097-31.20937  8.70196                                                                                            *
+                                               55   S           1.00                                                               
+                                                                      0.172256D+030.617669D-010.000000D+000.000000D+000.000000D+00 
 *                                                                     0.259109D+020.358794D+000.000000D+000.000000D+000.000000D+00*
 *                                                                     0.553335D+010.700713D+000.000000D+000.000000D+000.000000D+00*
 *                                          56- 59   SP          1.00                                                              *
+                                                                      0.366498D+01-.395895D+000.236460D+000.000000D+000.000000D+00 
 *                                                                     0.770545D+000.121583D+010.860619D+000.000000D+000.000000D+00*
 *                                          60- 63   SP          1.00                                                              *
+                                                                      0.195857D+000.100000D+010.100000D+010.000000D+000.000000D+00 
 *---------------------------------------------------------------------------------------------------------------------------------*
 *     C    -27.12155-35.94888 12.71612                                                                                            *
+                                               64   S           1.00                                                               
+                                                                      0.172256D+030.617669D-010.000000D+000.000000D+000.000000D+00 
 *                                                                     0.259109D+020.358794D+000.000000D+000.000000D+000.000000D+00*
 *                                                                     0.553335D+010.700713D+000.000000D+000.000000D+000.000000D+00*
 *                                          65- 68   SP          1.00                                                              *
+                                                                      0.366498D+01-.395895D+000.236460D+000.000000D+000.000000D+00 
 *                                                                     0.770545D+000.121583D+010.860619D+000.000000D+000.000000D+00*
 *                                          69- 72   SP          1.00                                                              *
+                                                                      0.195857D+000.100000D+010.100000D+010.000000D+000.000000D+00 
 *---------------------------------------------------------------------------------------------------------------------------------*
 *     C    -22.60743-31.12680  8.16829                                                                                            *
+                                               73   S           1.00                                                               
+                                                                      0.172256D+030.617669D-010.000000D+000.000000D+000.000000D+00 
 *                                                                     0.259109D+020.358794D+000.000000D+000.000000D+000.000000D+00*
 *                                                                     0.553335D+010.700713D+000.000000D+000.000000D+000.000000D+00*
 *                                          74- 77   SP          1.00                                                              *
+                                                                      0.366498D+01-.395895D+000.236460D+000.000000D+000.000000D+00 
 *                                                                     0.770545D+000.121583D+010.860619D+000.000000D+000.000000D+00*
 *                                          78- 81   SP          1.00                                                              *
+                                                                      0.195857D+000.100000D+010.100000D+010.000000D+000.000000D+00 
 *---------------------------------------------------------------------------------------------------------------------------------*
 *     C    -25.14406-37.03170 14.21611                                                                                            *
+                                               82   S           1.00                                                               
+                                                                      0.172256D+030.617669D-010.000000D+000.000000D+000.000000D+00 
 *                                                                     0.259109D+020.358794D+000.000000D+000.000000D+000.000000D+00*
 *                                                                     0.553335D+010.700713D+000.000000D+000.000000D+000.000000D+00*
 *                                          83- 86   SP          1.00                                                              *
+                                                                      0.366498D+01-.395895D+000.236460D+000.000000D+000.000000D+00 
 *                                                                     0.770545D+000.121583D+010.860619D+000.000000D+000.000000D+00*
 *                                          87- 90   SP          1.00                                                              *
+                                                                      0.195857D+000.100000D+010.100000D+010.000000D+000.000000D+00 
 *---------------------------------------------------------------------------------------------------------------------------------*
 *     F    -20.18939-34.87355 11.96408                                                                                            *
+                                               91   S           1.00                                                               
+                                                                      0.413801D+030.585483D-010.000000D+000.000000D+000.000000D+00 
 *                                                                     0.622446D+020.349308D+000.000000D+000.000000D+000.000000D+00*
 *                                                                     0.134340D+020.709632D+000.000000D+000.000000D+000.000000D+00*
 *                                          92- 95   SP          1.00                                                              *
+                                                                      0.977759D+01-.407326D+000.246680D+000.000000D+000.000000D+00 
 *                                                                     0.208617D+010.122314D+010.852321D+000.000000D+000.000000D+00*
 *                                          96- 99   SP          1.00                                                              *
+                                                                      0.482383D+000.100000D+010.100000D+010.000000D+000.000000D+00 
 *---------------------------------------------------------------------------------------------------------------------------------*
 *     H    -19.34350-30.10623 10.62268                                                                                            *
+                                              100   S           1.10                                                               
+                                                                      0.450180D+010.156285D+000.000000D+000.000000D+000.000000D+00 
 *                                                                     0.681444D+000.904691D+000.000000D+000.000000D+000.000000D+00*
 *                                             101   S           1.10                                                              *
+                                                                      0.151398D+000.100000D+010.000000D+000.000000D+000.000000D+00 
 *---------------------------------------------------------------------------------------------------------------------------------*
 *     H    -21.88392-39.45960 13.12252                                                                                            *
+                                              102   S           1.10                                                               
+                                                                      0.450180D+010.156285D+000.000000D+000.000000D+000.000000D+00 
 *                                                                     0.681444D+000.904691D+000.000000D+000.000000D+000.000000D+00*
 *                                             103   S           1.10                                                              *
+                                                                      0.151398D+000.100000D+010.000000D+000.000000D+000.000000D+00 
 *---------------------------------------------------------------------------------------------------------------------------------*
 *     H    -22.82249-29.19724 14.20291                                                                                            *
+                                              104   S           1.10                                                               
+                                                                      0.450180D+010.156285D+000.000000D+000.000000D+000.000000D+00 
 *                                                                     0.681444D+000.904691D+000.000000D+000.000000D+000.000000D+00*
 *                                             105   S           1.10                                                              *
+                                                                      0.151398D+000.100000D+010.000000D+000.000000D+000.000000D+00 
 *---------------------------------------------------------------------------------------------------------------------------------*
 *     H    -23.77606-39.20684  8.42095                                                                                            *
+                                              106   S           1.10                                                               
+                                                                      0.450180D+010.156285D+000.000000D+000.000000D+000.000000D+00 
 *                                                                     0.681444D+000.904691D+000.000000D+000.000000D+000.000000D+00*
 *                                             107   S           1.10                                                              *
+                                                                      0.151398D+000.100000D+010.000000D+000.000000D+000.000000D+00 
 *---------------------------------------------------------------------------------------------------------------------------------*
 *     H    -27.41105-30.22348 12.20985                                                                                            *
+                                              108   S           1.10                                                               
+                                                                      0.450180D+010.156285D+000.000000D+000.000000D+000.000000D+00 
 *                                                                     0.681444D+000.904691D+000.000000D+000.000000D+000.000000D+00*
 *                                             109   S           1.10                                                              *
+                                                                      0.151398D+000.100000D+010.000000D+000.000000D+000.000000D+00 
 *---------------------------------------------------------------------------------------------------------------------------------*
 *     H    -27.96287-36.28753  8.58361                                                                                            *
+                                              110   S           1.10                                                               
+                                                                      0.450180D+010.156285D+000.000000D+000.000000D+000.000000D+00 
 *                                                                     0.681444D+000.904691D+000.000000D+000.000000D+000.000000D+00*
 *                                             111   S           1.10                                                              *
+                                                                      0.151398D+000.100000D+010.000000D+000.000000D+000.000000D+00 
 *---------------------------------------------------------------------------------------------------------------------------------*
 *     H    -26.73148-31.69328  7.37979                                                                                            *
+                                              112   S           1.10                                                               
+                                                                      0.450180D+010.156285D+000.000000D+000.000000D+000.000000D+00 
 *                                                                     0.681444D+000.904691D+000.000000D+000.000000D+000.000000D+00*
 *                                             113   S           1.10                                                              *
+                                                                      0.151398D+000.100000D+010.000000D+000.000000D+000.000000D+00 
 *---------------------------------------------------------------------------------------------------------------------------------*
 *     H    -28.66369-34.81524 13.40996                                                                                            *
+                                              114   S           1.10                                                               
+                                                                      0.450180D+010.156285D+000.000000D+000.000000D+000.000000D+00 
 *                                                                     0.681444D+000.904691D+000.000000D+000.000000D+000.000000D+00*
 *                                             115   S           1.10                                                              *
+                                                                      0.151398D+000.100000D+010.000000D+000.000000D+000.000000D+00 
 *---------------------------------------------------------------------------------------------------------------------------------*
 *     H    -21.72314-31.57524  6.38853                                                                                            *
+                                              116   S           1.10                                                               
+                                                                      0.450180D+010.156285D+000.000000D+000.000000D+000.000000D+00 
 *                                                                     0.681444D+000.904691D+000.000000D+000.000000D+000.000000D+00*
 *                                             117   S           1.10                                                              *
+                                                                      0.151398D+000.100000D+010.000000D+000.000000D+000.000000D+00 
 *---------------------------------------------------------------------------------------------------------------------------------*
 *     H    -24.91017-36.82558 16.22943                                                                                            *
+                                              118   S           1.10                                                               
+                                                                      0.450180D+010.156285D+000.000000D+000.000000D+000.000000D+00 
 *                                                                     0.681444D+000.904691D+000.000000D+000.000000D+000.000000D+00*
 *                                             119   S           1.10                                                              *
+                                                                      0.151398D+000.100000D+010.000000D+000.000000D+000.000000D+00 
 *---------------------------------------------------------------------------------------------------------------------------------*
 *     V    -23.44149-34.17228 11.28364                                                                                            *
+                                              120   S           1.00                                                               
+                                                                      0.256388D+040.639475D-010.000000D+000.000000D+000.000000D+00 
 *                                                                     0.387534D+030.377594D+000.000000D+000.000000D+000.000000D+00*
 *                                                                     0.845982D+020.680542D+000.000000D+000.000000D+000.000000D+00*
 *                                         121-124   SP          1.00                                                              *
+                                                                      0.109794D+03-.109836D+000.138421D+000.000000D+000.000000D+00 
 *                                                                     0.237692D+020.100707D+000.550489D+000.000000D+000.000000D+00*
 *                                                                     0.712296D+010.955633D+000.482417D+000.000000D+000.000000D+00*
 *                                         125-128   SP          1.00                                                              *
+                                                                      0.698120D+01-.288459D+000.218208D-010.000000D+000.000000D+00 
 *                                                                     0.221984D+010.336436D+000.456762D+000.000000D+000.000000D+00*
 *                                                                     0.719803D+000.848190D+000.618675D+000.000000D+000.000000D+00*
 *                                         129-134   D           1.00                                                              *
+                                                                      0.834292D+010.000000D+000.000000D+000.264062D+000.000000D+00 
 *                                                                     0.203294D+010.000000D+000.000000D+000.853966D+000.000000D+00*
 *                                         135-140   D           1.00                                                              *
+                                                                      0.495712D+000.000000D+000.000000D+000.100000D+010.000000D+00 
 *                                         141-144   SP          1.00                                                              *
+                                                                      0.631262D+00-.236490D+000.189954D-030.000000D+000.000000D+00 
 *                                                                     0.800617D-010.109772D+010.999940D+000.000000D+000.000000D+00*
 *                                         145-148   SP          1.00                                                              *
+                                                                      0.288649D-010.100000D+010.100000D+010.000000D+000.000000D+00 
 ***********************************************************************************************************************************
 Integral buffers will be    131072 words long.
 Raffenetti 2 integral format.
 Two-electron integral symmetry is turned off.
   148 basis functions,   252 primitive gaussians,   148 cartesian basis functions
    52 alpha electrons       50 beta electrons
       nuclear repulsion energy       966.5143412201 Hartrees.
 One-electron integrals computed using PRISM.
 NBasis=   148 RedAO= T  NBF=   148
 NBsUse=   148 1.00D-06 NBFU=   148
 Harris functional with IExCor=  402 diagonalized for initial guess.
 ExpMin= 2.89D-02 ExpMax= 2.56D+03 ExpMxC= 2.56D+03 IAcc=3 IRadAn=         5 AccDes= 0.00D+00
 HarFok:  IExCor= 402 AccDes= 0.00D+00 IRadAn=         5 IDoV=1
 ScaDFX=  1.000000  1.000000  1.000000  1.000000
 <S**2> of initial guess= 2.0000
 Requested convergence on RMS density matrix=1.00D-04 within 128 cycles.
 Requested convergence on MAX density matrix=1.00D-02.
 Requested convergence on             energy=1.00D-02.
 No special actions if energy rises.
 Keep R1 and R2 integrals in memory in canonical form, NReq=   124347274.
 EnCoef did   100 forward-backward iterations
 SCF Done:  E(UB+HF-LYP) =  -1423.84917601     A.U. after   11 cycles
             Convg  =    0.2136D-04             -V/T =  2.0052
             S**2   =   2.0242
 Annihilation of the first spin contaminant:
 S**2 before annihilation     2.0242,   after     2.0003

 **********************************************************************

            Population analysis using the SCF density.

 **********************************************************************

 Alpha  occ. eigenvalues -- -195.62331 -24.46760 -22.20443 -18.66172 -18.66104
 Alpha  occ. eigenvalues --  -18.65294 -10.14399 -10.14368 -10.14353 -10.14321
 Alpha  occ. eigenvalues --  -10.14317 -10.14288 -10.13998 -10.13995 -10.13977
 Alpha  occ. eigenvalues --  -10.13976  -2.67995  -1.70216  -1.69709  -1.69151
 Alpha  occ. eigenvalues --   -1.05352  -0.90394  -0.89576  -0.72707  -0.72352
 Alpha  occ. eigenvalues --   -0.72255  -0.72119  -0.56177  -0.55566  -0.55126
 Alpha  occ. eigenvalues --   -0.55124  -0.54553  -0.53732  -0.42025  -0.41669
 Alpha  occ. eigenvalues --   -0.41620  -0.41583  -0.41516  -0.39534  -0.39178
 Alpha  occ. eigenvalues --   -0.39082  -0.38922  -0.38225  -0.35448  -0.33966
 Alpha  occ. eigenvalues --   -0.33876  -0.26994  -0.26943  -0.26416  -0.22953
 Alpha  occ. eigenvalues --   -0.21525  -0.18201
 Alpha virt. eigenvalues --   -0.03502  -0.02555  -0.01713   0.02587   0.02709
 Alpha virt. eigenvalues --    0.04265   0.04435   0.04905   0.05917   0.06307
 Alpha virt. eigenvalues --    0.07106   0.13816   0.15028   0.17008   0.17862
 Alpha virt. eigenvalues --    0.17966   0.18560   0.19520   0.20783   0.21404
 Alpha virt. eigenvalues --    0.22007   0.22254   0.24561   0.24904   0.25029
 Alpha virt. eigenvalues --    0.26902   0.28604   0.31547   0.37967   0.38228
 Alpha virt. eigenvalues --    0.38491   0.40040   0.40464   0.43841   0.44987
 Alpha virt. eigenvalues --    0.66879   0.68429   0.70691   0.72382   0.72870
 Alpha virt. eigenvalues --    0.74250   0.75148   0.75968   0.76151   0.77284
 Alpha virt. eigenvalues --    0.77381   0.78783   0.81314   0.81787   0.84242
 Alpha virt. eigenvalues --    0.85617   0.88509   0.92705   0.93297   0.95752
 Alpha virt. eigenvalues --    0.96332   0.97673   0.98914   0.99869   1.00069
 Alpha virt. eigenvalues --    1.02662   1.02787   1.06242   1.07143   1.07252
 Alpha virt. eigenvalues --    1.07726   1.17112   1.20041   1.24817   1.27590
 Alpha virt. eigenvalues --    1.31017   1.34050   1.34866   1.37127   1.39626
 Alpha virt. eigenvalues --    1.49869   1.50308   1.50414   1.54678   1.55270
 Alpha virt. eigenvalues --    1.64158   1.87662   1.88334   1.91105   2.00369
 Alpha virt. eigenvalues --    2.03228   2.08505   2.14839   2.16946   2.25822
 Alpha virt. eigenvalues --    2.30859   2.40411   2.41262   2.44542   3.66965
 Alpha virt. eigenvalues --   16.95800
  Beta  occ. eigenvalues -- -195.62306 -24.46606 -22.18003 -18.64660 -18.64460
  Beta  occ. eigenvalues --  -18.62607 -10.14441 -10.14409 -10.14397 -10.14382
  Beta  occ. eigenvalues --  -10.14361 -10.14350 -10.13954 -10.13950 -10.13933
  Beta  occ. eigenvalues --  -10.13931  -2.60245  -1.63674  -1.62873  -1.57952
  Beta  occ. eigenvalues --   -1.04929  -0.90374  -0.89583  -0.72803  -0.72272
  Beta  occ. eigenvalues --   -0.72222  -0.72176  -0.56111  -0.55556  -0.55130
  Beta  occ. eigenvalues --   -0.55113  -0.54442  -0.53715  -0.41916  -0.41593
  Beta  occ. eigenvalues --   -0.41488  -0.41482  -0.41475  -0.39492  -0.39155
  Beta  occ. eigenvalues --   -0.39059  -0.38908  -0.38282  -0.35119  -0.33488
  Beta  occ. eigenvalues --   -0.31738  -0.26521  -0.26029  -0.25231  -0.22737
  Beta virt. eigenvalues --   -0.03577  -0.03488   0.00482   0.00737   0.01438
  Beta virt. eigenvalues --    0.02761   0.02805   0.04756   0.05034   0.05895
  Beta virt. eigenvalues --    0.06342   0.08485   0.08863   0.15162   0.15215
  Beta virt. eigenvalues --    0.17052   0.18251   0.18602   0.19063   0.19485
  Beta virt. eigenvalues --    0.20799   0.21413   0.21976   0.22660   0.24937
  Beta virt. eigenvalues --    0.25056   0.25262   0.27668   0.28760   0.32151
  Beta virt. eigenvalues --    0.37955   0.38281   0.39191   0.40025   0.40468
  Beta virt. eigenvalues --    0.43842   0.44984   0.66966   0.68693   0.70686
  Beta virt. eigenvalues --    0.72380   0.73860   0.74245   0.75116   0.75913
  Beta virt. eigenvalues --    0.76282   0.77335   0.77682   0.78859   0.81484
  Beta virt. eigenvalues --    0.82094   0.84002   0.85850   0.88654   0.92576
  Beta virt. eigenvalues --    0.93439   0.95757   0.96303   0.97706   0.98912
  Beta virt. eigenvalues --    0.99881   1.00098   1.02666   1.03501   1.06460
  Beta virt. eigenvalues --    1.07166   1.07319   1.07757   1.17201   1.20577
  Beta virt. eigenvalues --    1.24906   1.27739   1.31089   1.34027   1.34992
  Beta virt. eigenvalues --    1.37222   1.39654   1.51287   1.51897   1.53824
  Beta virt. eigenvalues --    1.54693   1.60290   1.66582   1.87981   1.89037
  Beta virt. eigenvalues --    1.91102   2.00384   2.03898   2.08558   2.14992
  Beta virt. eigenvalues --    2.21592   2.26633   2.34195   2.41295   2.42713
  Beta virt. eigenvalues --    2.45819   3.67374  16.98877
     Alpha Molecular Orbital Coefficients
                           1         2         3         4         5
                           O         O         O         O         O
     EIGENVALUES --  -195.62331 -24.46760 -22.20443 -18.66172 -18.66104
   1 1   C  1S         -0.00002   0.00014  -0.00002  -0.00044  -0.00003
   2        2S         -0.00022   0.00090  -0.00058  -0.00265  -0.00009
   3        2PX         0.00006  -0.00014   0.00036  -0.00032  -0.00070
   4        2PY         0.00007  -0.00013   0.00056   0.00003   0.00016
   5        2PZ        -0.00001   0.00002  -0.00012  -0.00005  -0.00015
   6        3S         -0.00027  -0.00251  -0.00312   0.01275   0.00350
   7        3PX         0.00019   0.00082   0.00170  -0.00263   0.00204
   8        3PY        -0.00012   0.00138  -0.00013  -0.00430  -0.00119
   9        3PZ         0.00006  -0.00030   0.00028   0.00093   0.00065
  10 2   C  1S         -0.00002   0.00014  -0.00002   0.00044  -0.00003
  11        2S         -0.00022   0.00090  -0.00058   0.00266  -0.00008
  12        2PX         0.00002  -0.00006   0.00003   0.00030  -0.00071
  13        2PY        -0.00009   0.00017  -0.00065  -0.00011   0.00014
  14        2PZ         0.00003  -0.00006   0.00020   0.00008  -0.00015
  15        3S         -0.00027  -0.00251  -0.00312  -0.01277   0.00345
  16        3PX         0.00023   0.00003   0.00158   0.00013   0.00242
  17        3PY         0.00004  -0.00156  -0.00058  -0.00490   0.00021
  18        3PZ         0.00002   0.00047   0.00041   0.00151   0.00029
  19 3   C  1S         -0.00004   0.00009  -0.00005  -0.00024   0.00008
  20        2S         -0.00030   0.00071  -0.00066  -0.00135   0.00048
  21        2PX         0.00001   0.00047   0.00008  -0.00054   0.00001
  22        2PY         0.00007  -0.00033   0.00045  -0.00046   0.00003
  23        2PZ         0.00006   0.00018   0.00059  -0.00057  -0.00015
  24        3S          0.00041  -0.00106  -0.00074   0.00640  -0.00294
  25        3PX         0.00004  -0.00128  -0.00020   0.00079   0.00071
  26        3PY        -0.00029   0.00112  -0.00005  -0.00211   0.00128
  27        3PZ        -0.00029  -0.00169  -0.00263   0.00361   0.00257
  28 4   C  1S         -0.00004   0.00008  -0.00005   0.00024   0.00009
  29        2S         -0.00030   0.00071  -0.00066   0.00134   0.00048
  30        2PX         0.00001   0.00059   0.00012   0.00049  -0.00006
  31        2PY        -0.00007   0.00010  -0.00049  -0.00068  -0.00002
  32        2PZ        -0.00006   0.00005  -0.00055  -0.00035   0.00014
  33        3S          0.00041  -0.00105  -0.00075  -0.00638  -0.00297
  34        3PX         0.00003  -0.00216  -0.00116  -0.00288   0.00105
  35        3PY         0.00028  -0.00038   0.00034  -0.00131  -0.00167
  36        3PZ         0.00030   0.00097   0.00235   0.00286  -0.00218
  37 5   C  1S         -0.00004  -0.00015   0.00003  -0.00005   0.00002
  38        2S         -0.00023  -0.00105  -0.00006   0.00015  -0.00030
  39        2PX        -0.00005   0.00009  -0.00068   0.00061  -0.00092
  40        2PY         0.00001   0.00030   0.00008  -0.00094   0.00052
  41        2PZ         0.00001  -0.00012   0.00030  -0.00006   0.00070
  42        3S          0.00013   0.00329  -0.00477   0.00551  -0.00271
  43        3PX         0.00003  -0.00053   0.00105   0.00029   0.00420
  44        3PY        -0.00017  -0.00210   0.00141   0.00011   0.00092
  45        3PZ         0.00005   0.00089  -0.00132   0.00010  -0.00239
  46 6   C  1S         -0.00004  -0.00015   0.00003   0.00005   0.00002
  47        2S         -0.00023  -0.00105  -0.00006  -0.00014  -0.00030
  48        2PX        -0.00005  -0.00009  -0.00048  -0.00086  -0.00071
  49        2PY         0.00002  -0.00030   0.00017  -0.00063  -0.00018
  50        2PZ        -0.00003   0.00012  -0.00054  -0.00036  -0.00104
  51        3S          0.00013   0.00329  -0.00478  -0.00550  -0.00274
  52        3PX         0.00011   0.00073  -0.00019  -0.00025   0.00223
  53        3PY         0.00013   0.00206  -0.00160   0.00023  -0.00231
  54        3PZ        -0.00002  -0.00085   0.00149  -0.00003   0.00373
  55 7   C  1S         -0.00004  -0.00015   0.00003  -0.00005   0.00002
  56        2S         -0.00023  -0.00105  -0.00006   0.00015  -0.00030
  57        2PX        -0.00005   0.00008  -0.00057   0.00050  -0.00067
  58        2PY         0.00000   0.00032  -0.00015  -0.00071  -0.00002
  59        2PZ        -0.00002  -0.00004  -0.00045   0.00072  -0.00108
  60        3S          0.00013   0.00328  -0.00478   0.00551  -0.00273
  61        3PX         0.00003  -0.00046   0.00078   0.00032   0.00353
  62        3PY        -0.00017  -0.00229   0.00197   0.00007   0.00240
  63        3PZ         0.00005   0.00031   0.00054  -0.00005   0.00247
  64 8   C  1S         -0.00004  -0.00015   0.00003   0.00005   0.00002
  65        2S         -0.00023  -0.00105  -0.00006  -0.00015  -0.00030
  66        2PX        -0.00005  -0.00008  -0.00059  -0.00097  -0.00097
  67        2PY         0.00002  -0.00032   0.00040  -0.00039   0.00037
  68        2PZ         0.00000   0.00004   0.00021   0.00041   0.00074
  69        3S          0.00013   0.00329  -0.00478  -0.00550  -0.00275
  70        3PX         0.00011   0.00064   0.00008  -0.00023   0.00294
  71        3PY         0.00013   0.00224  -0.00216   0.00019  -0.00379
  72        3PZ        -0.00002  -0.00027  -0.00036  -0.00016  -0.00112
  73 9   C  1S         -0.00004   0.00008  -0.00005  -0.00024   0.00008
  74        2S         -0.00029   0.00070  -0.00066  -0.00134   0.00048
  75        2PX         0.00003   0.00048   0.00027  -0.00070  -0.00003
  76        2PY         0.00002  -0.00033   0.00006  -0.00011   0.00010
  77        2PZ        -0.00008   0.00016  -0.00070   0.00056   0.00010
  78        3S          0.00041  -0.00101  -0.00075   0.00637  -0.00295
  79        3PX        -0.00006  -0.00158  -0.00087   0.00151   0.00142
  80        3PY        -0.00008   0.00174   0.00139  -0.00366  -0.00026
  81        3PZ         0.00040   0.00041   0.00208  -0.00153  -0.00255
  82 10  C  1S         -0.00004   0.00008  -0.00005   0.00024   0.00009
  83        2S         -0.00029   0.00070  -0.00066   0.00134   0.00048
  84        2PX        -0.00002   0.00059  -0.00007   0.00032  -0.00002
  85        2PY        -0.00003   0.00010  -0.00010  -0.00033  -0.00010
  86        2PZ         0.00009   0.00006   0.00074   0.00078  -0.00011
  87        3S          0.00041  -0.00102  -0.00075  -0.00637  -0.00298
  88        3PX         0.00013  -0.00186  -0.00048  -0.00212   0.00030
  89        3PY         0.00007  -0.00101  -0.00110  -0.00288  -0.00012
  90        3PZ        -0.00038  -0.00113  -0.00236  -0.00230   0.00291
  91 11  F  1S         -0.00002   0.98118  -0.00005   0.00000  -0.00007
  92        2S         -0.00001   0.10249  -0.00089   0.00000   0.00022
  93        2PX        -0.00012  -0.00165   0.00037  -0.00026  -0.00163
  94        2PY         0.00002   0.00035  -0.00008  -0.00097   0.00035
  95        2PZ        -0.00002  -0.00034   0.00008   0.00026  -0.00034
  96        3S          0.00027  -0.03853   0.00142   0.00000   0.00181
  97        3PX        -0.00035   0.00419  -0.00275   0.00106   0.00387
  98        3PY         0.00008  -0.00090   0.00059   0.00393  -0.00082
  99        3PZ        -0.00007   0.00088  -0.00057  -0.00104   0.00081
 100 12  H  1S          0.00001   0.00001  -0.00025  -0.00069  -0.00047
 101        2S         -0.00018  -0.00040   0.00024   0.00162  -0.00150
 102 13  H  1S          0.00001   0.00001  -0.00025   0.00070  -0.00047
 103        2S         -0.00018  -0.00040   0.00024  -0.00161  -0.00151
 104 14  H  1S          0.00006   0.00036   0.00019  -0.00077  -0.00014
 105        2S         -0.00009   0.00087   0.00177  -0.00102  -0.00126
 106 15  H  1S          0.00006   0.00035   0.00019   0.00077  -0.00013
 107        2S         -0.00009   0.00087   0.00177   0.00102  -0.00126
 108 16  H  1S          0.00006  -0.00052   0.00032   0.00007   0.00078
 109        2S         -0.00032   0.00053   0.00140  -0.00055   0.00196
 110 17  H  1S          0.00006  -0.00052   0.00032  -0.00008   0.00078
 111        2S         -0.00032   0.00053   0.00140   0.00053   0.00196
 112 18  H  1S          0.00006  -0.00052   0.00032   0.00008   0.00078
 113        2S         -0.00032   0.00053   0.00140  -0.00054   0.00196
 114 19  H  1S          0.00006  -0.00052   0.00032  -0.00008   0.00078
 115        2S         -0.00032   0.00053   0.00140   0.00053   0.00197
 116 20  H  1S          0.00006   0.00035   0.00019  -0.00076  -0.00013
 117        2S         -0.00009   0.00087   0.00178  -0.00102  -0.00125
 118 21  H  1S          0.00006   0.00035   0.00019   0.00077  -0.00013
 119        2S         -0.00009   0.00087   0.00178   0.00102  -0.00125
 120 22  V  1S          0.98309   0.00002  -0.31382   0.00000   0.00004
 121        2S          0.06160  -0.00001   1.01548   0.00000  -0.00007
 122        2PX         0.00000   0.00000   0.00007   0.24753   0.94367
 123        2PY         0.00000   0.00000  -0.00001   0.92081  -0.20139
 124        2PZ         0.00000   0.00000   0.00001  -0.24458   0.19685
 125        3S          0.09188  -0.00204   0.14893  -0.00001   0.00204
 126        3PX         0.00002  -0.00017   0.00037   0.01168   0.04281
 127        3PY         0.00000   0.00004  -0.00008   0.04342  -0.00913
 128        3PZ         0.00000  -0.00004   0.00008  -0.01153   0.00893
 129        4XX        -0.04486  -0.00010  -0.03154   0.00001  -0.00084
 130        4YY        -0.04485   0.00105  -0.03191  -0.00001  -0.00066
 131        4ZZ        -0.04494   0.00122  -0.03193   0.00000  -0.00058
 132        4XY         0.00001   0.00029  -0.00009   0.00002   0.00004
 133        4XZ         0.00001  -0.00032   0.00010   0.00000  -0.00006
 134        4YZ        -0.00003   0.00013  -0.00003   0.00001   0.00004
 135        5XX        -0.00755   0.00387  -0.02680  -0.00005  -0.00032
 136        5YY        -0.00760  -0.00078  -0.02551   0.00004  -0.00123
 137        5ZZ        -0.00731  -0.00138  -0.02600   0.00001  -0.00152
 138        5XY        -0.00004  -0.00117   0.00037  -0.00010  -0.00022
 139        5XZ        -0.00004   0.00128  -0.00025   0.00002   0.00028
 140        5YZ         0.00011  -0.00048  -0.00012  -0.00003  -0.00016
 141        6S          0.00167   0.00580   0.03512  -0.00001   0.00623
 142        6PX         0.00007   0.01809  -0.00788  -0.01074  -0.01522
 143        6PY        -0.00001  -0.00390   0.00170  -0.03976   0.00319
 144        6PZ         0.00001   0.00378  -0.00165   0.01055  -0.00316
 145        7S          0.00033  -0.00314  -0.01136   0.00000   0.00092
 146        7PX        -0.00034  -0.00267   0.00176   0.00140   0.00390
 147        7PY         0.00007   0.00058  -0.00038   0.00521  -0.00083
 148        7PZ        -0.00007  -0.00056   0.00037  -0.00138   0.00081
                           6         7         8         9        10
                           O         O         O         O         O
     EIGENVALUES --   -18.65294 -10.14399 -10.14368 -10.14353 -10.14321
   1 1   C  1S          0.00000  -0.00001  -0.00252  -0.21602   0.03188
   2        2S          0.00000   0.00000  -0.00031  -0.02608   0.00383
   3        2PX        -0.00003  -0.00012  -0.00008   0.00104  -0.00079
   4        2PY         0.00007   0.00025   0.00021   0.00109  -0.00005
   5        2PZ         0.00022   0.00083   0.00065  -0.00020  -0.00009
   6        3S         -0.00002  -0.00004   0.00020   0.01666   0.00545
   7        3PX         0.00005  -0.00012  -0.00014  -0.00306  -0.00090
   8        3PY        -0.00011   0.00030   0.00018  -0.00373  -0.00141
   9        3PZ        -0.00036   0.00097   0.00076   0.00069   0.00030
  10 2   C  1S          0.00000   0.00015  -0.00143  -0.13527  -0.11705
  11        2S          0.00000   0.00002  -0.00018  -0.01655  -0.01400
  12        2PX        -0.00003   0.00008  -0.00013   0.00006   0.00078
  13        2PY         0.00007  -0.00017   0.00026  -0.00099  -0.00085
  14        2PZ         0.00022  -0.00057   0.00090   0.00030   0.00037
  15        3S          0.00001   0.00000   0.00009   0.01073   0.00217
  16        3PX         0.00006   0.00010  -0.00013   0.00047  -0.00064
  17        3PY        -0.00011  -0.00020   0.00035   0.00339   0.00029
  18        3PZ        -0.00036  -0.00065   0.00102  -0.00098  -0.00019
  19 3   C  1S          0.00002   0.04026   0.02171  -0.02439   0.05764
  20        2S          0.00051   0.00541   0.00270  -0.00319   0.00790
  21        2PX        -0.00040   0.00037   0.00031   0.00022  -0.00070
  22        2PY        -0.00058   0.00027   0.00038  -0.00024  -0.00023
  23        2PZ        -0.00096  -0.00012  -0.00038   0.00062  -0.00052
  24        3S          0.00327  -0.02423  -0.01571   0.00927  -0.01630
  25        3PX         0.00061   0.00850   0.00610  -0.00892   0.00691
  26        3PY         0.00054   0.00360   0.00133  -0.00037   0.00299
  27        3PZ         0.00378   0.00932   0.00855  -0.00528   0.00685
  28 4   C  1S         -0.00002   0.03039  -0.03460  -0.00771  -0.05812
  29        2S         -0.00051   0.00417  -0.00444  -0.00083  -0.00795
  30        2PX         0.00047   0.00015  -0.00001   0.00032   0.00081
  31        2PY        -0.00077  -0.00021   0.00055   0.00027  -0.00048
  32        2PZ        -0.00078   0.00006  -0.00050  -0.00040  -0.00035
  33        3S         -0.00327  -0.01752   0.02322   0.00473   0.01716
  34        3PX        -0.00175   0.00605  -0.01072  -0.00638  -0.00973
  35        3PY         0.00105  -0.00553   0.00669   0.00192   0.00692
  36        3PZ         0.00330  -0.00339   0.00727   0.00125   0.00366
  37 5   C  1S          0.00011  -0.56785  -0.39353   0.55520  -0.40317
  38        2S          0.00095  -0.06727  -0.04566   0.06544  -0.04567
  39        2PX         0.00088  -0.00156  -0.00142   0.00159  -0.00096
  40        2PY        -0.00024   0.00124   0.00021  -0.00187   0.00128
  41        2PZ        -0.00002   0.00062   0.00065   0.00001   0.00023
  42        3S         -0.00184   0.08095   0.05417  -0.04928   0.03016
  43        3PX        -0.00441   0.02135   0.01728  -0.01055   0.00872
  44        3PY         0.00056  -0.00723  -0.00269   0.00635  -0.00069
  45        3PZ         0.00251  -0.01841  -0.01320  -0.00401   0.00163
  46 6   C  1S         -0.00011  -0.40174   0.57559   0.38231   0.55576
  47        2S         -0.00095  -0.04790   0.06728   0.04568   0.06379
  48        2PX        -0.00082  -0.00112   0.00153   0.00148   0.00183
  49        2PY         0.00013  -0.00065  -0.00008   0.00078   0.00111
  50        2PZ        -0.00037  -0.00080   0.00153   0.00045   0.00087
  51        3S          0.00185   0.05786  -0.07956  -0.03578  -0.04373
  52        3PX         0.00294   0.00930  -0.01474  -0.00931  -0.01171
  53        3PY        -0.00103   0.00079   0.00317  -0.00225   0.00227
  54        3PZ         0.00404   0.01777  -0.02657   0.00034  -0.00179
  55 7   C  1S         -0.00011   0.57074   0.40751   0.54400  -0.40062
  56        2S         -0.00095   0.06759   0.04731   0.06414  -0.04537
  57        2PX        -0.00082   0.00126   0.00122   0.00136  -0.00077
  58        2PY         0.00012  -0.00059   0.00025  -0.00145   0.00087
  59        2PZ        -0.00036   0.00157   0.00103   0.00139  -0.00112
  60        3S          0.00184  -0.08120  -0.05539  -0.04774   0.02978
  61        3PX         0.00355  -0.01545  -0.01337  -0.01033   0.00870
  62        3PY         0.00123  -0.00567  -0.00613   0.00683  -0.00082
  63        3PZ         0.00340  -0.02404  -0.01646  -0.00249   0.00117
  64 8   C  1S          0.00011   0.39856  -0.56350   0.39742   0.55961
  65        2S          0.00095   0.04753  -0.06585   0.04744   0.06424
  66        2PX         0.00087   0.00133  -0.00182   0.00165   0.00209
  67        2PY        -0.00024   0.00018   0.00079   0.00050   0.00059
  68        2PZ        -0.00001  -0.00069   0.00077  -0.00042  -0.00083
  69        3S         -0.00185  -0.05763   0.07842  -0.03788  -0.04426
  70        3PX        -0.00379  -0.01359   0.02056  -0.00960  -0.01168
  71        3PY         0.00282   0.00833  -0.01608  -0.00237   0.00203
  72        3PZ         0.00188   0.01213  -0.01560  -0.00104  -0.00276
  73 9   C  1S         -0.00002  -0.04085  -0.02236  -0.02347   0.05786
  74        2S         -0.00052  -0.00549  -0.00278  -0.00307   0.00793
  75        2PX         0.00068  -0.00034  -0.00023   0.00036  -0.00082
  76        2PY        -0.00001  -0.00032  -0.00056  -0.00052   0.00003
  77        2PZ        -0.00098  -0.00004  -0.00019  -0.00030   0.00037
  78        3S         -0.00325   0.02440   0.01593   0.00876  -0.01625
  79        3PX        -0.00160  -0.01090  -0.00839  -0.00973   0.00857
  80        3PY         0.00158   0.00145   0.00315   0.00185  -0.00070
  81        3PZ         0.00318   0.00731   0.00607   0.00199  -0.00532
  82 10  C  1S          0.00002  -0.03022   0.03424  -0.00844  -0.05862
  83        2S          0.00052  -0.00414   0.00439  -0.00092  -0.00801
  84        2PX        -0.00019  -0.00015   0.00010   0.00022   0.00065
  85        2PY         0.00018   0.00020  -0.00072   0.00049  -0.00014
  86        2PZ        -0.00116  -0.00011  -0.00009   0.00026   0.00075
  87        3S          0.00326   0.01745  -0.02300   0.00529   0.01736
  88        3PX         0.00074  -0.00446   0.00771  -0.00588  -0.00789
  89        3PY         0.00108   0.00226  -0.00073   0.00040   0.00301
  90        3PZ         0.00367  -0.00726   0.01209  -0.00404  -0.00930
  91 11  F  1S          0.00000   0.00000   0.00000  -0.00015  -0.00003
  92        2S          0.00000   0.00000  -0.00002  -0.00130  -0.00023
  93        2PX         0.00002   0.00000   0.00001  -0.00052  -0.00014
  94        2PY        -0.00005  -0.00001  -0.00003   0.00014  -0.00015
  95        2PZ        -0.00017  -0.00002  -0.00012  -0.00011   0.00002
  96        3S          0.00000   0.00000   0.00007   0.00513   0.00090
  97        3PX        -0.00012  -0.00001  -0.00005   0.00172   0.00048
  98        3PY         0.00026   0.00003   0.00016  -0.00044   0.00064
  99        3PZ         0.00085   0.00009   0.00052   0.00037  -0.00012
 100 12  H  1S          0.00000   0.00000   0.00000   0.00031  -0.00051
 101        2S          0.00001   0.00000   0.00000  -0.00065   0.00023
 102 13  H  1S          0.00000   0.00000   0.00000   0.00000   0.00064
 103        2S          0.00000   0.00000   0.00000  -0.00033  -0.00053
 104 14  H  1S         -0.00050  -0.00001  -0.00024   0.00036  -0.00024
 105        2S         -0.00275  -0.00147  -0.00205   0.00156  -0.00135
 106 15  H  1S          0.00050   0.00007   0.00024   0.00030   0.00034
 107        2S          0.00275  -0.00070   0.00246   0.00113   0.00171
 108 16  H  1S         -0.00042   0.00140   0.00164  -0.00112   0.00146
 109        2S         -0.00233  -0.00088   0.00051   0.00413  -0.00340
 110 17  H  1S          0.00042   0.00077  -0.00205  -0.00054  -0.00173
 111        2S          0.00233  -0.00101  -0.00009   0.00287   0.00458
 112 18  H  1S          0.00042  -0.00141  -0.00167  -0.00108   0.00145
 113        2S          0.00231   0.00089  -0.00041   0.00413  -0.00341
 114 19  H  1S         -0.00042  -0.00075   0.00203  -0.00060  -0.00174
 115        2S         -0.00232   0.00097   0.00018   0.00287   0.00459
 116 20  H  1S          0.00050   0.00002   0.00025   0.00036  -0.00024
 117        2S          0.00276   0.00148   0.00209   0.00150  -0.00134
 118 21  H  1S         -0.00050  -0.00007  -0.00023   0.00031   0.00034
 119        2S         -0.00276   0.00068  -0.00243   0.00120   0.00171
 120 22  V  1S          0.00000   0.00000   0.00000   0.00004   0.00001
 121        2S          0.00000   0.00000   0.00000   0.00033   0.00006
 122        2PX        -0.13413  -0.00001  -0.00004   0.00017   0.00011
 123        2PY         0.28402   0.00001   0.00008  -0.00010   0.00028
 124        2PZ         0.93355   0.00005   0.00027   0.00005  -0.00007
 125        3S          0.00000   0.00000   0.00003   0.00207   0.00040
 126        3PX        -0.00599   0.00002   0.00011  -0.00020  -0.00025
 127        3PY         0.01269  -0.00004  -0.00023   0.00025  -0.00077
 128        3PZ         0.04172  -0.00013  -0.00075  -0.00009   0.00020
 129        4XX        -0.00002   0.00000   0.00026  -0.00066  -0.00078
 130        4YY        -0.00001   0.00032   0.00007  -0.00001   0.00051
 131        4ZZ         0.00003  -0.00032  -0.00032   0.00057   0.00019
 132        4XY         0.00003  -0.00009  -0.00034   0.00043  -0.00123
 133        4XZ         0.00009   0.00000  -0.00104  -0.00034   0.00023
 134        4YZ        -0.00001   0.00056   0.00007   0.00030  -0.00033
 135        5XX         0.00010  -0.00001  -0.00112   0.00135   0.00313
 136        5YY         0.00005  -0.00145  -0.00029  -0.00136  -0.00262
 137        5ZZ        -0.00015   0.00146   0.00135  -0.00403  -0.00121
 138        5XY        -0.00014   0.00040   0.00145  -0.00183   0.00554
 139        5XZ        -0.00041  -0.00004   0.00448   0.00147  -0.00104
 140        5YZ         0.00006  -0.00252  -0.00028  -0.00137   0.00145
 141        6S          0.00000  -0.00002   0.00042   0.02949   0.00484
 142        6PX         0.00157   0.00021   0.00072  -0.03333  -0.00819
 143        6PY        -0.00334  -0.00041  -0.00245   0.00735  -0.00787
 144        6PZ        -0.01096  -0.00144  -0.00833  -0.00689   0.00118
 145        7S          0.00000   0.00001  -0.00001  -0.00042  -0.00005
 146        7PX        -0.00069  -0.00007  -0.00034   0.00728   0.00121
 147        7PY         0.00145   0.00016   0.00091  -0.00139  -0.00047
 148        7PZ         0.00478   0.00053   0.00306   0.00142   0.00033
                          11        12        13        14        15
                           O         O         O         O         O
     EIGENVALUES --   -10.14317 -10.14288 -10.13998 -10.13995 -10.13977
   1 1   C  1S          0.83981   0.45298   0.07769   0.01564   0.02904
   2        2S          0.09801   0.05137   0.00867   0.00177   0.00265
   3        2PX        -0.00218  -0.00108   0.00050   0.00018   0.00000
   4        2PY        -0.00220  -0.00074  -0.00142  -0.00046  -0.00009
   5        2PZ         0.00036   0.00007   0.00062  -0.00035   0.00015
   6        3S         -0.09740  -0.05025   0.02114   0.00453   0.00444
   7        3PX         0.02666   0.01507  -0.01782  -0.00591  -0.00212
   8        3PY         0.01063   0.00301   0.00291   0.00515  -0.00216
   9        3PZ         0.00053   0.00121  -0.00689   0.01323  -0.00563
  10 2   C  1S         -0.49065   0.82754  -0.00655  -0.00302   0.03909
  11        2S         -0.05813   0.09532  -0.00179  -0.00056   0.00389
  12        2PX         0.00041  -0.00089  -0.00084  -0.00016   0.00035
  13        2PY        -0.00194   0.00243  -0.00066  -0.00024   0.00017
  14        2PZ         0.00065  -0.00087   0.00014  -0.00023  -0.00044
  15        3S          0.05766  -0.09424  -0.00933  -0.00236   0.00751
  16        3PX        -0.00939   0.01963   0.01077   0.00166  -0.00726
  17        3PY         0.01300  -0.01829  -0.00071   0.00172   0.00618
  18        3PZ        -0.00532   0.00842   0.00036   0.00654   0.01209
  19 3   C  1S         -0.06063  -0.07472   0.45777   0.75510  -0.15863
  20        2S         -0.00731  -0.00998   0.05368   0.08784  -0.01818
  21        2PX         0.00027   0.00000  -0.00030   0.00007  -0.00015
  22        2PY        -0.00062  -0.00013  -0.00149  -0.00238   0.00024
  23        2PZ         0.00093   0.00064  -0.00035  -0.00167   0.00111
  24        3S          0.02840   0.02575  -0.05496  -0.07756   0.01350
  25        3PX         0.00445   0.00215   0.00179   0.00249  -0.00083
  26        3PY        -0.00074  -0.00296   0.00955   0.01136  -0.00130
  27        3PZ        -0.01914  -0.01210   0.01121   0.01758  -0.00645
  28 4   C  1S          0.01331  -0.09634  -0.25575  -0.34023  -0.42123
  29        2S          0.00107  -0.01248  -0.03036  -0.03999  -0.04868
  30        2PX        -0.00051   0.00071  -0.00023  -0.00047  -0.00001
  31        2PY        -0.00028   0.00024  -0.00064  -0.00108  -0.00106
  32        2PZ         0.00025  -0.00086  -0.00041  -0.00044  -0.00175
  33        3S         -0.01024   0.03715   0.03296   0.03767   0.03873
  34        3PX         0.00128  -0.00330  -0.00050  -0.00019  -0.00381
  35        3PY         0.00134   0.00283   0.00595   0.00610   0.00582
  36        3PZ        -0.01000   0.02064   0.00644   0.00565   0.01048
  37 5   C  1S          0.09960   0.08985   0.06048   0.05452  -0.01590
  38        2S          0.01134   0.00989   0.00594   0.00570  -0.00148
  39        2PX        -0.00047  -0.00004  -0.00019  -0.00009  -0.00019
  40        2PY        -0.00028  -0.00031  -0.00004  -0.00078   0.00006
  41        2PZ        -0.00026  -0.00034   0.00080  -0.00015   0.00049
  42        3S         -0.01644  -0.00881   0.00232   0.01581  -0.00556
  43        3PX        -0.00358  -0.00363   0.00740   0.01358  -0.00206
  44        3PY         0.00112   0.00005   0.00297   0.00435  -0.00009
  45        3PZ        -0.00071  -0.00004   0.00004   0.00087  -0.00156
  46 6   C  1S          0.00399   0.13570  -0.04466  -0.02351  -0.02493
  47        2S          0.00044   0.01511  -0.00434  -0.00257  -0.00261
  48        2PX         0.00046  -0.00022   0.00003  -0.00003  -0.00005
  49        2PY        -0.00014   0.00054   0.00018  -0.00038  -0.00046
  50        2PZ         0.00015   0.00034   0.00030   0.00012  -0.00075
  51        3S          0.00572  -0.01647  -0.00007  -0.00550  -0.01279
  52        3PX         0.00061  -0.00465  -0.00262  -0.00434  -0.00601
  53        3PY         0.00020   0.00155   0.00241   0.00456   0.00458
  54        3PZ        -0.00005  -0.00161  -0.00068  -0.00259  -0.00113
  55 7   C  1S          0.09925   0.08932   0.07834  -0.02444   0.02625
  56        2S          0.01130   0.00983   0.00784  -0.00273   0.00258
  57        2PX        -0.00055  -0.00015  -0.00006   0.00017   0.00006
  58        2PY        -0.00013  -0.00007  -0.00069   0.00034  -0.00022
  59        2PZ         0.00024   0.00043  -0.00038  -0.00075   0.00036
  60        3S         -0.01640  -0.00875   0.00887  -0.01347   0.00922
  61        3PX        -0.00354  -0.00351   0.01253  -0.00939   0.00618
  62        3PY         0.00104  -0.00021   0.00453  -0.00260   0.00128
  63        3PZ        -0.00094  -0.00090   0.00033  -0.00025  -0.00046
  64 8   C  1S          0.00387   0.13647  -0.04980   0.00169   0.05920
  65        2S          0.00043   0.01520  -0.00496   0.00042   0.00606
  66        2PX         0.00047  -0.00008   0.00010   0.00007   0.00039
  67        2PY        -0.00016   0.00025  -0.00017   0.00032   0.00054
  68        2PZ         0.00008  -0.00062  -0.00026  -0.00025  -0.00053
  69        3S          0.00573  -0.01659  -0.00216   0.00482   0.01790
  70        3PX         0.00058  -0.00481  -0.00403   0.00286   0.01039
  71        3PY         0.00024   0.00183   0.00390  -0.00329  -0.00942
  72        3PZ         0.00009  -0.00076  -0.00195   0.00074   0.00522
  73 9   C  1S         -0.06107  -0.07502   0.73814  -0.49801   0.34769
  74        2S         -0.00737  -0.01001   0.08625  -0.05774   0.03980
  75        2PX         0.00045   0.00015  -0.00068   0.00030  -0.00062
  76        2PY        -0.00100  -0.00046  -0.00142   0.00053  -0.00009
  77        2PZ        -0.00033  -0.00044   0.00206  -0.00199   0.00150
  78        3S          0.02845   0.02577  -0.08295   0.04775  -0.03205
  79        3PX        -0.00060  -0.00121   0.00813  -0.00487   0.00547
  80        3PY         0.01019   0.00432   0.00176   0.00078  -0.00248
  81        3PZ         0.01682   0.01182  -0.02084   0.01215  -0.01064
  82 10  C  1S          0.01345  -0.09667  -0.36572   0.18741   0.80143
  83        2S          0.00109  -0.01251  -0.04328   0.02192   0.09276
  84        2PX        -0.00045   0.00048  -0.00061   0.00042   0.00077
  85        2PY        -0.00041   0.00072  -0.00057   0.00046   0.00089
  86        2PZ        -0.00019   0.00074   0.00087  -0.00044  -0.00300
  87        3S         -0.01026   0.03723   0.04478  -0.01878  -0.07993
  88        3PX        -0.00128   0.00243   0.00226  -0.00089   0.00028
  89        3PY         0.00669  -0.00920   0.00208  -0.00113  -0.00049
  90        3PZ         0.00756  -0.01885  -0.01074   0.00314   0.02409
  91 11  F  1S          0.00001   0.00005   0.00003   0.00001   0.00003
  92        2S          0.00002   0.00026   0.00028   0.00005   0.00027
  93        2PX         0.00006   0.00010   0.00030   0.00001  -0.00008
  94        2PY         0.00018  -0.00008   0.00111   0.00038  -0.00007
  95        2PZ        -0.00005   0.00004  -0.00039   0.00033   0.00019
  96        3S         -0.00027  -0.00169  -0.00099  -0.00019  -0.00096
  97        3PX        -0.00030   0.00022  -0.00111  -0.00002   0.00044
  98        3PY        -0.00152   0.00043  -0.00462  -0.00155   0.00025
  99        3PZ         0.00041  -0.00010   0.00164  -0.00131  -0.00073
 100 12  H  1S         -0.00196  -0.00160   0.00045   0.00011  -0.00024
 101        2S          0.00347   0.00325   0.00393   0.00080   0.00146
 102 13  H  1S          0.00084  -0.00237  -0.00081  -0.00017  -0.00011
 103        2S         -0.00127   0.00458  -0.00048  -0.00018   0.00193
 104 14  H  1S          0.00054   0.00015  -0.00096  -0.00208   0.00085
 105        2S          0.00274   0.00200   0.00242   0.00452   0.00085
 106 15  H  1S         -0.00036   0.00041   0.00037   0.00053   0.00155
 107        2S         -0.00114   0.00317  -0.00065  -0.00312  -0.00133
 108 16  H  1S         -0.00022  -0.00024  -0.00018  -0.00021   0.00027
 109        2S          0.00158   0.00005   0.00289   0.00304   0.00045
 110 17  H  1S         -0.00002  -0.00036   0.00033   0.00004   0.00027
 111        2S         -0.00099   0.00095  -0.00144  -0.00202  -0.00057
 112 18  H  1S         -0.00022  -0.00023  -0.00025   0.00011  -0.00011
 113        2S          0.00158   0.00004   0.00392  -0.00157   0.00062
 114 19  H  1S         -0.00002  -0.00036   0.00031   0.00009  -0.00022
 115        2S         -0.00100   0.00094  -0.00212   0.00115   0.00272
 116 20  H  1S          0.00053   0.00015  -0.00177   0.00151  -0.00156
 117        2S          0.00274   0.00199   0.00412  -0.00314   0.00066
 118 21  H  1S         -0.00036   0.00041   0.00053  -0.00029  -0.00264
 119        2S         -0.00115   0.00317  -0.00186   0.00247   0.00380
 120 22  V  1S          0.00001   0.00003   0.00002   0.00000   0.00002
 121        2S          0.00002   0.00003   0.00005   0.00001   0.00005
 122        2PX         0.00012   0.00004   0.00004   0.00004  -0.00001
 123        2PY         0.00033  -0.00010   0.00024  -0.00001  -0.00005
 124        2PZ        -0.00008   0.00004  -0.00001  -0.00023  -0.00009
 125        3S         -0.00072  -0.00282  -0.00123  -0.00023  -0.00121
 126        3PX        -0.00045  -0.00012  -0.00024  -0.00013   0.00007
 127        3PY        -0.00139   0.00043  -0.00123  -0.00012   0.00017
 128        3PZ         0.00036  -0.00015   0.00021   0.00058   0.00018
 129        4XX         0.00009   0.00120   0.00103   0.00021   0.00079
 130        4YY         0.00036   0.00059   0.00033  -0.00027   0.00107
 131        4ZZ         0.00067   0.00210   0.00063   0.00043   0.00009
 132        4XY        -0.00050  -0.00015   0.00003   0.00008  -0.00027
 133        4XZ         0.00006  -0.00013   0.00005  -0.00009   0.00055
 134        4YZ         0.00004   0.00057   0.00030  -0.00051   0.00136
 135        5XX         0.00113   0.00056  -0.00161  -0.00037  -0.00062
[...]
     123  V             1.31017   2.63592
     124  V             1.34050   2.72924
     125  V             1.34866   2.68368
     126  V             1.37127   2.71000
     127  V             1.39626   2.70748
     128  V             1.49869   5.42337
     129  V             1.50308   5.00086
     130  V             1.50414   5.21089
     131  V             1.54678   2.87360
     132  V             1.55270   5.89552
     133  V             1.64158   5.77830
     134  V             1.87662   4.56077
     135  V             1.88334   4.19697
     136  V             1.91105   5.21567
     137  V             2.00369   3.51619
     138  V             2.03228   5.48536
     139  V             2.08505   3.48438
     140  V             2.14839   4.80653
     141  V             2.16946   5.86198
     142  V             2.25822   5.72737
     143  V             2.30859   5.33604
     144  V             2.40411   5.74493
     145  V             2.41262   5.96831
     146  V             2.44542   5.86340
     147  V             3.66965   8.68820
     148  V            16.95800  33.04828
 Orbital energies and kinetic energies (beta):
                           1         2
       1  O          -195.62306 251.24351
       2  O           -24.46606  36.79778
       3  O           -22.18003  44.16096
       4  O           -18.64660  44.08501
       5  O           -18.64460  44.11504
       6  O           -18.62607  44.14252
       7  O           -10.14441  15.80506
       8  O           -10.14409  15.80452
       9  O           -10.14397  15.81649
      10  O           -10.14382  15.80996
      11  O           -10.14361  15.81060
      12  O           -10.14350  15.80674
      13  O           -10.13954  15.81364
      14  O           -10.13950  15.80971
      15  O           -10.13933  15.81130
      16  O           -10.13931  15.80930
      17  O            -2.60245   9.38296
      18  O            -1.63674   7.68294
      19  O            -1.62873   7.62434
      20  O            -1.57952   7.74416
      21  O            -1.04929   4.05266
      22  O            -0.90374   1.49442
      23  O            -0.89583   1.55630
      24  O            -0.72803   1.59248
      25  O            -0.72272   1.60189
      26  O            -0.72222   1.61859
      27  O            -0.72176   1.59570
      28  O            -0.56111   1.33846
      29  O            -0.55556   1.35022
      30  O            -0.55130   1.39643
      31  O            -0.55113   1.37757
      32  O            -0.54442   0.97294
      33  O            -0.53715   1.00359
      34  O            -0.41916   1.23930
      35  O            -0.41593   1.27289
      36  O            -0.41488   1.19817
      37  O            -0.41482   1.27949
      38  O            -0.41475   1.28592
      39  O            -0.39492   1.34420
      40  O            -0.39155   1.35146
      41  O            -0.39059   1.35274
      42  O            -0.38908   1.36501
      43  O            -0.38282   1.28743
      44  O            -0.35119   3.18127
      45  O            -0.33488   2.54017
      46  O            -0.31738   2.94768
      47  O            -0.26521   1.33143
      48  O            -0.26029   1.52239
      49  O            -0.25231   1.27257
      50  O            -0.22737   1.86779
      51  V            -0.03577   2.75493
      52  V            -0.03488   2.65860
      53  V             0.00482   4.25341
      54  V             0.00737   3.50954
      55  V             0.01438   4.25779
      56  V             0.02761   0.76958
      57  V             0.02805   0.33215
      58  V             0.04756   0.94068
      59  V             0.05034   0.69247
      60  V             0.05895   1.53650
      61  V             0.06342   1.74601
      62  V             0.08485   3.35174
      63  V             0.08863   2.87052
      64  V             0.15162   1.28803
      65  V             0.15215   1.60433
      66  V             0.17052   1.02135
      67  V             0.18251   1.49674
      68  V             0.18602   1.19362
      69  V             0.19063   1.26143
      70  V             0.19485   1.35993
      71  V             0.20799   1.26985
      72  V             0.21413   1.19892
      73  V             0.21976   1.53358
      74  V             0.22660   1.46402
      75  V             0.24937   1.75138
      76  V             0.25056   1.72266
      77  V             0.25262   1.66869
      78  V             0.27668   1.87016
      79  V             0.28760   1.47819
      80  V             0.32151   1.69466
      81  V             0.37955   1.86996
      82  V             0.38281   2.04607
      83  V             0.39191   2.16076
      84  V             0.40025   1.90785
      85  V             0.40468   2.07308
      86  V             0.43842   1.87922
      87  V             0.44984   1.96918
      88  V             0.66966   2.87643
      89  V             0.68693   2.74447
      90  V             0.70686   2.70243
      91  V             0.72380   2.65384
      92  V             0.73860   2.86684
      93  V             0.74245   2.70127
      94  V             0.75116   2.60578
      95  V             0.75913   2.73985
      96  V             0.76282   2.71582
      97  V             0.77335   2.66970
      98  V             0.77682   3.03632
      99  V             0.78859   2.37079
     100  V             0.81484   2.66950
     101  V             0.82094   2.78952
     102  V             0.84002   2.70036
     103  V             0.85850   2.72101
     104  V             0.88654   2.86743
     105  V             0.92576   2.83913
     106  V             0.93439   2.92999
     107  V             0.95757   3.24418
     108  V             0.96303   3.07868
     109  V             0.97706   3.23983
     110  V             0.98912   3.14212
     111  V             0.99881   3.10493
     112  V             1.00098   3.15908
     113  V             1.02666   3.08477
     114  V             1.03501   3.37119
     115  V             1.06460   3.08923
     116  V             1.07166   3.09165
     117  V             1.07319   3.00873
     118  V             1.07757   3.08623
     119  V             1.17201   3.11720
     120  V             1.20577   3.60496
     121  V             1.24906   2.56368
     122  V             1.27739   2.71456
     123  V             1.31089   2.63488
     124  V             1.34027   2.72949
     125  V             1.34992   2.67873
     126  V             1.37222   2.71794
     127  V             1.39654   2.70222
     128  V             1.51287   5.35728
     129  V             1.51897   5.17623
     130  V             1.53824   4.94074
     131  V             1.54693   2.91923
     132  V             1.60290   5.86708
     133  V             1.66582   5.68871
     134  V             1.87981   4.57115
     135  V             1.89037   4.15243
     136  V             1.91102   5.22331
     137  V             2.00384   3.51490
     138  V             2.03898   5.53521
     139  V             2.08558   3.48398
     140  V             2.14992   4.83258
     141  V             2.21592   6.21779
     142  V             2.26633   5.77715
     143  V             2.34195   5.62042
     144  V             2.41295   5.80983
     145  V             2.42713   6.03695
     146  V             2.45819   5.93067
     147  V             3.67374   8.68872
     148  V            16.98877  33.04877
 Total kinetic energy from orbitals= 1.416521484804D+03
                          Isotropic Fermi Contact Couplings
        Atom                 a.u.       MegaHertz       Gauss      10(-4) cm-1
     1  C(13)             -0.00697      -3.91997      -1.39874      -1.30756
     2  C(13)             -0.00697      -3.91929      -1.39850      -1.30733
     3  C(13)              0.00584       3.28046       1.17055       1.09424
     4  C(13)              0.00582       3.27381       1.16818       1.09203
     5  C(13)             -0.00504      -2.83485      -1.01154      -0.94560
     6  C(13)             -0.00503      -2.82658      -1.00859      -0.94285
     7  C(13)             -0.00498      -2.79962      -0.99897      -0.93385
     8  C(13)             -0.00499      -2.80594      -1.00123      -0.93596
     9  C(13)              0.00579       3.25544       1.16162       1.08590
    10  C(13)              0.00580       3.26091       1.16358       1.08772
    11  F(19)              0.01690      35.56310      12.68980      11.86257
    12  H(1)               0.00077       1.72891       0.61692       0.57670
    13  H(1)               0.00077       1.72896       0.61693       0.57672
    14  H(1)               0.00057       1.27647       0.45547       0.42578
    15  H(1)               0.00057       1.27892       0.45635       0.42660
    16  H(1)               0.00114       2.54928       0.90965       0.85035
    17  H(1)               0.00114       2.54302       0.90741       0.84826
    18  H(1)               0.00113       2.52025       0.89929       0.84067
    19  H(1)               0.00113       2.52737       0.90183       0.84304
    20  H(1)               0.00058       1.28884       0.45989       0.42991
    21  H(1)               0.00058       1.28646       0.45904       0.42912
    22  V(51)              0.14719      86.67911      30.92926      28.91304
 --------------------------------------------------------
       Center         ----  Spin Dipole Couplings  ----
                      3XX-RR        3YY-RR        3ZZ-RR
 --------------------------------------------------------
     1   Atom        0.014858     -0.017648      0.002790
     2   Atom       -0.015477      0.006490      0.008986
     3   Atom       -0.035177      0.066079     -0.030902
     4   Atom       -0.026969      0.056016     -0.029047
     5   Atom        0.007454     -0.000983     -0.006471
     6   Atom        0.018201     -0.016280     -0.001921
     7   Atom        0.003383     -0.014026      0.010643
     8   Atom        0.025010     -0.024544     -0.000466
     9   Atom       -0.033790      0.032593      0.001197
    10   Atom       -0.020026      0.025216     -0.005191
    11   Atom       -0.262214     -0.132918      0.395131
    12   Atom        0.000802      0.005336     -0.006138
    13   Atom       -0.010728      0.014513     -0.003784
    14   Atom       -0.012328      0.013882     -0.001554
    15   Atom       -0.011067      0.014038     -0.002971
    16   Atom        0.004146      0.005216     -0.009362
    17   Atom        0.010937     -0.005777     -0.005160
    18   Atom        0.000667     -0.003878      0.003211
    19   Atom        0.016354     -0.010796     -0.005558
    20   Atom       -0.009342     -0.002285      0.011627
    21   Atom       -0.009838     -0.002992      0.012831
    22   Atom       -0.535698     -0.579749      1.115447
 --------------------------------------------------------
                        XY            XZ            YZ
 --------------------------------------------------------
     1   Atom        0.024392     -0.006330      0.010889
     2   Atom       -0.028259      0.005351     -0.003977
     3   Atom        0.008044     -0.002092      0.005357
     4   Atom        0.030344      0.003132      0.009324
     5   Atom       -0.024905      0.000706      0.009217
     6   Atom        0.009442      0.012750      0.014258
     7   Atom       -0.017596      0.013456     -0.010061
     8   Atom        0.004333     -0.010950      0.000762
     9   Atom        0.014485     -0.008863     -0.044372
    10   Atom        0.030226     -0.022600     -0.037497
    11   Atom       -0.005578     -0.102799      0.180788
    12   Atom        0.014365     -0.003398     -0.001460
    13   Atom       -0.005640      0.001047     -0.007106
    14   Atom        0.003182      0.002395      0.012715
    15   Atom        0.002652     -0.000894      0.013380
    16   Atom       -0.015364     -0.000948      0.003098
    17   Atom        0.009355      0.009812      0.006244
    18   Atom       -0.009485      0.010556     -0.009914
    19   Atom        0.004855     -0.008804     -0.002042
    20   Atom        0.003698     -0.009108     -0.011841
    21   Atom        0.005422     -0.006250     -0.012130
    22   Atom       -0.121939     -0.229338      0.559712
 --------------------------------------------------------


 ---------------------------------------------------------------------------------
              Anisotropic Spin Dipole Couplings in Principal Axis System
 ---------------------------------------------------------------------------------

       Atom             a.u.   MegaHertz   Gauss  10(-4) cm-1        Axes

              Baa    -0.0349    -4.684    -1.672    -1.563 -0.4496  0.8352 -0.3167
     1 C(13)  Bbb     0.0070     0.937     0.334     0.313 -0.1319  0.2886  0.9483
              Bcc     0.0279     3.747     1.337     1.250  0.8834  0.4681 -0.0197
 
              Baa    -0.0349    -4.686    -1.672    -1.563  0.8272  0.5597 -0.0501
     2 C(13)  Bbb     0.0070     0.938     0.335     0.313 -0.1384  0.2894  0.9472
              Bcc     0.0279     3.748     1.337     1.250 -0.5446  0.7765 -0.3168
 
              Baa    -0.0369    -4.952    -1.767    -1.652  0.9120 -0.0920  0.3998
     3 C(13)  Bbb    -0.0301    -4.037    -1.440    -1.346 -0.4030 -0.0173  0.9151
              Bcc     0.0670     8.989     3.208     2.998  0.0773  0.9956  0.0528
 
              Baa    -0.0369    -4.949    -1.766    -1.651  0.9509 -0.3094 -0.0119
     4 C(13)  Bbb    -0.0301    -4.033    -1.439    -1.345 -0.0203 -0.1006  0.9947
              Bcc     0.0669     8.982     3.205     2.996  0.3090  0.9456  0.1019
 
              Baa    -0.0251    -3.372    -1.203    -1.125  0.5664  0.7302 -0.3822
     5 C(13)  Bbb    -0.0042    -0.565    -0.202    -0.188  0.3626  0.1956  0.9112
              Bcc     0.0293     3.937     1.405     1.313  0.7401 -0.6547 -0.1539
 
              Baa    -0.0251    -3.370    -1.203    -1.124 -0.0380  0.8605 -0.5081
     6 C(13)  Bbb    -0.0042    -0.568    -0.203    -0.189 -0.5741  0.3973  0.7159
              Bcc     0.0293     3.938     1.405     1.314  0.8179  0.3189  0.4789
 
              Baa    -0.0250    -3.358    -1.198    -1.120  0.5084  0.8596  0.0507
     7 C(13)  Bbb    -0.0043    -0.578    -0.206    -0.193 -0.5947  0.3080  0.7426
              Bcc     0.0293     3.936     1.405     1.313  0.6227 -0.4077  0.6678
 
              Baa    -0.0251    -3.362    -1.199    -1.121 -0.1026  0.9918 -0.0764
     8 C(13)  Bbb    -0.0043    -0.575    -0.205    -0.192  0.3342  0.1067  0.9364
              Bcc     0.0293     3.937     1.405     1.313  0.9369  0.0705 -0.3424
 
              Baa    -0.0368    -4.942    -1.763    -1.648  0.9728 -0.2284 -0.0398
     9 C(13)  Bbb    -0.0300    -4.024    -1.436    -1.342  0.1617  0.5456  0.8223
              Bcc     0.0668     8.966     3.199     2.991  0.1661  0.8063 -0.5677
 
              Baa    -0.0368    -4.944    -1.764    -1.649  0.8871 -0.1736  0.4278
    10 C(13)  Bbb    -0.0300    -4.026    -1.437    -1.343 -0.2336  0.6305  0.7402
              Bcc     0.0668     8.969     3.200     2.992  0.3982  0.7565 -0.5188
 
              Baa    -0.2825  -141.887   -50.629   -47.328  0.9577 -0.2064  0.2004
    11 F(19)  Bbb    -0.1823   -91.561   -32.671   -30.542  0.2534  0.9351 -0.2477
              Bcc     0.4648   233.449    83.300    77.870 -0.1362  0.2880  0.9479
 
              Baa    -0.0120    -6.383    -2.278    -2.129  0.7488 -0.5975  0.2869
    12 H(1)   Bbb    -0.0061    -3.257    -1.162    -1.086 -0.1332  0.2883  0.9482
              Bcc     0.0181     9.640     3.440     3.216  0.6493  0.7482 -0.1363
 
              Baa    -0.0120    -6.384    -2.278    -2.129  0.9714  0.2263  0.0722
    13 H(1)   Bbb    -0.0061    -3.256    -1.162    -1.086 -0.1377  0.2889  0.9474
              Bcc     0.0181     9.640     3.440     3.216 -0.1935  0.9302 -0.3118
 
              Baa    -0.0129    -6.858    -2.447    -2.288  0.9855 -0.0387 -0.1653
    14 H(1)   Bbb    -0.0086    -4.612    -1.646    -1.538  0.1240 -0.5010  0.8565
              Bcc     0.0215    11.471     4.093     3.826  0.1160  0.8646  0.4889
 
              Baa    -0.0129    -6.857    -2.447    -2.287  0.7746 -0.3413  0.5324
    15 H(1)   Bbb    -0.0086    -4.614    -1.646    -1.539 -0.6297 -0.3387  0.6991
              Bcc     0.0215    11.471     4.093     3.826  0.0583  0.8768  0.4773
 
              Baa    -0.0117    -6.254    -2.232    -2.086  0.5521  0.6056 -0.5731
    16 H(1)   Bbb    -0.0086    -4.596    -1.640    -1.533  0.4708  0.3408  0.8137
              Bcc     0.0203    10.850     3.872     3.619 -0.6881  0.7191  0.0970
 
              Baa    -0.0117    -6.253    -2.231    -2.086 -0.0014  0.7254 -0.6883
    17 H(1)   Bbb    -0.0086    -4.598    -1.641    -1.534 -0.5698  0.5651  0.5967
              Bcc     0.0203    10.851     3.872     3.619  0.8218  0.3930  0.4125
 
              Baa    -0.0117    -6.248    -2.229    -2.084  0.4335  0.8612  0.2655
    18 H(1)   Bbb    -0.0086    -4.603    -1.643    -1.536 -0.6864  0.1246  0.7164
              Bcc     0.0203    10.851     3.872     3.620  0.5839 -0.4928  0.6451
 
              Baa    -0.0117    -6.251    -2.230    -2.085 -0.1227  0.9811  0.1499
    19 H(1)   Bbb    -0.0086    -4.602    -1.642    -1.535  0.3478 -0.0990  0.9323
              Bcc     0.0203    10.853     3.873     3.620  0.9295  0.1665 -0.3291
 
              Baa    -0.0128    -6.850    -2.444    -2.285  0.9059  0.1335  0.4019
    20 H(1)   Bbb    -0.0087    -4.616    -1.647    -1.540 -0.2971  0.8766  0.3785
              Bcc     0.0215    11.465     4.091     3.824 -0.3018 -0.4623  0.8338
 
              Baa    -0.0128    -6.851    -2.445    -2.285  0.8571 -0.5140 -0.0342
    21 H(1)   Bbb    -0.0087    -4.615    -1.647    -1.540  0.4502  0.7151  0.5348
              Bcc     0.0215    11.466     4.092     3.825 -0.2504 -0.4738  0.8443
 
              Baa    -0.7612  -107.018   -38.187   -35.697  0.2535  0.9350 -0.2479
    22 V(51)  Bbb    -0.5574   -78.364   -27.962   -26.139  0.9577 -0.2065  0.2004
              Bcc     1.3186   185.382    66.149    61.837 -0.1362  0.2882  0.9478
 

 ---------------------------------------------------------------------------------

 1\1\GINC-PRADES28\SP\UB3LYP\3-21G*\C10H10F1V1(3)\DORIA\16-Aug-2009\0\\
 # b3lyp/3-21G* nosymm nofmm maxdisk=80GB gfoldprint pop=full\\Optimiza
 ción Vanadoceno-F funcional densidad\\0,3\C,0,-11.303461,-16.001055,5.
 492228\C,0,-12.493159,-20.384158,6.660059\C,0,-12.272028,-15.804033,6.
 516194\C,0,-12.987337,-20.264834,5.330791\C,0,-13.558137,-16.103145,5.
 959628\C,0,-14.155518,-19.43618,5.375406\C,0,-13.367527,-16.515285,4.6
 04881\C,0,-14.352106,-19.023327,6.729082\C,0,-11.963336,-16.471594,4.3
 22474\C,0,-13.305663,-19.596329,7.522844\F,0,-10.683763,-18.454286,6.3
 31119\H,0,-10.236139,-15.93153,5.621278\H,0,-11.580472,-20.881122,6.94
 4141\H,0,-12.077139,-15.450512,7.515857\H,0,-12.581748,-20.747364,4.45
 6175\H,0,-14.505302,-15.993576,6.461175\H,0,-14.797316,-19.202532,4.54
 2251\H,0,-14.14569,-16.771359,3.905218\H,0,-15.168173,-18.423429,7.096
 247\H,0,-11.495389,-16.708898,3.380664\H,0,-13.181895,-19.48726,8.5882
 44\V,0,-12.404702,-18.083191,5.971043\\Version=AM64L-G03RevE.01\HF=-14
 23.849176\S2=2.024172\S2-1=0.\S2A=2.000316\RMSD=2.136e-05\Thermal=0.\D
 ipole=-0.6702939,0.1428587,-0.1398406\PG=C01 [X(C10H10F1V1)]\\@


 LIFE IS SO UNCERTAIN - EAT DESSERT FIRST.
 Job cpu time:  0 days  0 hours  1 minutes 29.4 seconds.
 File lengths (MBytes):  RWF=     29 Int=      0 D2E=      0 Chk=     11 Scr=      1
 Normal termination of Gaussian 03 at Sun Aug 16 13:57:28 2009.
