[Molden Format]
[Molpro variables]
NUMVAR=                    552.0000000000000000
PATCHLEVEL=                     34.0000000000000000
EV=                      0.0367493088676916
KJOULE=                      0.0003808798324129
KJOULE/MOL=                      0.0003808798324129
CM=                      0.0000045563352673
CM-1=                      0.0000045563352673
KCAL=                      0.0015936011178156
KCAL/MOL=                      0.0015936011178156
KELVIN=                      0.0000031668288611
HERTZ=                      0.0000000000000002
HZ=                      0.0000000000000002
TOA=                      0.5291772490000000
TOANG=                      0.5291772490000000
TORAD=                      0.0174532925199433
TOCM=                 219474.6306700000130000
TODEBYE=                      2.5415800000000002
TOEV=                     27.2113961000000018
TOHERTZ=       6579683899900000.0000000000000000
TOHZ=       6579683899900000.0000000000000000
TOK=                 315773.2999999999880000
TOKCAL=                    627.5095999999999780
TOKELVIN=                 315773.2999999999880000
TOKJ=                   2625.5000000000000000
TOKJOULE=                   2625.5000000000000000
ANG=                      1.8897259885789233
ANGSTROM=                      1.8897259885789233
IGNORE_UNDEF=                      2.0000000000000000
STRICTCHECK=                      0.0000000000000000
SEW_ONEEL=                      0.0000000000000000
CPPDONE=FALSE
DKROLL_DONE=                      0.0000000000000000
FOCKDONE=TRUE
GRADONE=FALSE
HESSDONE=FALSE
INTDONE=TRUE
SCFDONE=TRUE
MODUL_LCCSD=TRUE
MODUL_COSMO=TRUE
MODUL_VSCF=FALSE
MODUL_CFIT=TRUE
MODUL_MRCC=FALSE
MODUL_CIDFT=FALSE
MODUL_CC2=FALSE
MRCC_EXEC=
FITC_AO_SAVED=FALSE
FITC_MO_SAVED=FALSE
LSTYP=SEWARD
INTYP=INTS
GEOMTYP=ZMAT
GRADTYP=ALASKA
DIRECT=FALSE
DKROLL=FALSE
SYNCM=                      0.0000000000000000
DFTNAME=                      0.0000000000000000
DFTFUNC=                      0.0000000000000000
BASIS=6-31G*
BASISSETS=
ZSIGNX=
ZSIGNY=
ZSIGNZ=
CHARGE=
SCFCHARGE=
MCCHARGE=
CICHARGE=
CCCHARGE=
NELEC=                     17.0000000000000000
SCFNELEC=                     17.0000000000000000
MCNELEC=                     17.0000000000000000
CINELEC=                     17.0000000000000000
CCNELEC=                     17.0000000000000000
SPIN=                      1.0000000000000000
SCFSPIN=                      1.0000000000000000
MCSPIN=                      1.0000000000000000
CISPIN=                      1.0000000000000000
CCSPIN=                      1.0000000000000000
STATE=                      1.0000000000000000
SCFSTATE=                      1.0000000000000000
MCSTATE=                      1.0000000000000000
CISTATE=                      1.0000000000000000
SYMMETRY=                      1.0000000000000000
SCFSYMMETRY=                      1.0000000000000000
MCSYMMETRY=                      1.0000000000000000
CISYMMETRY=                      1.0000000000000000
CCSYMMETRY=                      1.0000000000000000
SCFSYMM=                      1.0000000000000000
MCSYMM=                      1.0000000000000000
CISYMM=                      1.0000000000000000
CCSYMM=                      1.0000000000000000
SCFSYM=                      1.0000000000000000
MCSYM=                      1.0000000000000000
CISYM=                      1.0000000000000000
CCSYM=                      1.0000000000000000
ZSYMEL=                      1.0000000000000000
WEIGHT=                      1.0000000000000000
MCWEIGHT=                      1.0000000000000000
LQUANT=                      1.0000000000000000
MCLQUANT=                      1.0000000000000000
OPTCONV=                      0.0005960689355137
QSDSTEP=                      0.0000000000000000
QSDIRC=                      0.0000000000000000
PROGRAM=LOCALI
CPUSTEP=                      0.0100000000000016
SYSSTEP=                      0.0000000000000000
WALLSTEP=                      0.0400000000000000
!PERT=                      0.0400000000000000
!DFMP2=                      0.0400000000000000
!DFSCF=                      0.0000000000000000
!DFHFENERG=                      0.0000000000000000
!SCSGRD=                      0.0000000000000000
ATCHARGE=                      0.0000000000000000
BASINP=                    610.0000000000000000
CARTESIAN=                    610.0000000000000000
CFIT=                    610.0000000000000000
CFIT_FRED=                    610.0000000000000000
CFIT_FRED_THR=                    610.0000000000000000
CHII2=                    610.0000000000000000
CHIRS=                    610.0000000000000000
COEFF=                    610.0000000000000000
CPU2IDX_CFIT=                    610.0000000000000000
CPU3IDX_CFIT=                    610.0000000000000000
CPUASMBL_CFIT=                    610.0000000000000000
CPUBLAS1=                    610.0000000000000000
CPUBLAS2=                    610.0000000000000000
CPUBLAS3=                    610.0000000000000000
CPUINT_DTRAF=                    610.0000000000000000
CPUSOLVE_CFIT=                    610.0000000000000000
CPUTOT=                     25.9800000000000004
CPUTR1_CFIT=                     25.9800000000000004
CPUTR2_CFIT=                     25.9800000000000004
CPUINV_CFIT=                     25.9800000000000004
CPUFIT_CFIT=                     25.9800000000000004
CPUTRANS_CFIT=                     25.9800000000000004
CPUSCREEN_CFIT=                     25.9800000000000004
CPUTRANS_DTRAF=                     25.9800000000000004
CPUTRA_DTRAF=                     25.9800000000000004
DALTON=                     25.9800000000000004
DARW=                     25.9800000000000004
DECAY=                     25.9800000000000004
DELE_CFIT=                     25.9800000000000004
DELG_CFIT=                     25.9800000000000004
DELTA=                     25.9800000000000004
DFTEXFAC=                     25.9800000000000004
DFTFAC=                     25.9800000000000004
DFTFUN=                     25.9800000000000004
DFTFUNS=                     25.9800000000000004
DMEX=                     25.9800000000000004
DMEY=                     25.9800000000000004
DMEZ=                     25.9800000000000004
DMNX=                     25.9800000000000004
DMNY=                     25.9800000000000004
DMNZ=                     25.9800000000000004
DMSCF=                     25.9800000000000004
DMSCF_Efield=                     25.9800000000000004
DMSCF_I=                     25.9800000000000004
DMSCF_J=                     25.9800000000000004
DMSCF_K=                     25.9800000000000004
DMSCF_N1=                     25.9800000000000004
DMSCF_N2=                     25.9800000000000004
DMSCF_NUC=                     25.9800000000000004
DMSCF_T=                     25.9800000000000004
DMSCF_V=                     25.9800000000000004
DMX=                      0.0000000000000000
DMY=                      0.0000000000000000
DMZ=                      0.0000000000000000
DMZCOR=                      0.0000000000000000
DM_RHO1=                      0.0000000000000000
DM_RVAL=                      0.0000000000000000
DUMMYATOMS=                      0.0000000000000000
FREQUENCIES=                      0.0000000000000000
EDISP=                      0.0000000000000000
EEDISP=                      0.0000000000000000
EINTRA=                      0.0000000000000000
EIONIC=                      0.0000000000000000
EMP2=                      0.0000000000000000
EMP2_SING=                      0.0000000000000000
EMP2_TRIP=                      0.0000000000000000
EMP2_SCS=                      0.0000000000000000
ECSING=                      0.0000000000000000
ECTRIP=                      0.0000000000000000
EMP2_R12=                      0.0000000000000000
EMP2_R12A=                      0.0000000000000000
EMP2R12_2AD=                      0.0000000000000000
EMP2R12_2A=                      0.0000000000000000
EMP2R12_2AP=                      0.0000000000000000
EMP2R12_2SAD=                      0.0000000000000000
EMP2R12_2SA=                      0.0000000000000000
EMP2R12_2SAP=                      0.0000000000000000
EMP2_R12_DIAG=                      0.0000000000000000
EMP2_R12_STRONG=                      0.0000000000000000
EMP2_R12_CLOSE=                      0.0000000000000000
EMP2_R12_WEAK=                      0.0000000000000000
EMP2_R12_DIST=                      0.0000000000000000
EMP2R=                      0.0000000000000000
EMP3=                      0.0000000000000000
EMP3R=                      0.0000000000000000
EMP4=                      0.0000000000000000
ENERGC=                      0.0000000000000000
ENERGD=                      0.0000000000000000
ENERGP=                      0.0000000000000000
ENERGR=                      0.0000000000000000
ENERGRR=                      0.0000000000000000
ENERGS=                      0.0000000000000000
ENERGT=                      0.0000000000000000
ENERGU=                      0.0000000000000000
ENERGW=                      0.0000000000000000
ENERGY=                      0.0000000000000000
ENERGY_MP=                      0.0000000000000000
ENUC=                     36.9945822862159446
EPDIST=                     36.9945822862159446
EPDIST_R12=                     36.9945822862159446
EPSUM=                     36.9945822862159446
EPSUM_R12=                     36.9945822862159446
EPS1=                     36.9945822862159446
EPS2=                     36.9945822862159446
EPS3=                     36.9945822862159446
EPS4=                     36.9945822862159446
EPS5=                     36.9945822862159446
EPS6=                     36.9945822862159446
EPS7=                     36.9945822862159446
EPS8=                     36.9945822862159446
EREL=                     36.9945822862159446
FLOPBLAS1=                     36.9945822862159446
FLOPBLAS2=                     36.9945822862159446
FLOPBLAS3=                     36.9945822862159446
FLOPDGM=                     36.9945822862159446
FLOPDGV=                     36.9945822862159446
FLOPMXM=                     36.9945822862159446
FLOPMXV=                     36.9945822862159446
FREQSTEP=                     36.9945822862159446
!RS2GRSTATE=                     36.9945822862159446
!RS2GRSYM=                     36.9945822862159446
GRADENERG=                    -78.5921618961277915
GRADEXFAC=                   9999.0000000000000000
GRADMETHOD=                      2.0000000000000000
GRADRECORD=                      2.0000000000000000
GRADX=                      2.0000000000000000
GRADY=                      2.0000000000000000
GRADZ=                      2.0000000000000000
GRADVAR=                      2.0000000000000000
GRID=                      2.0000000000000000
GRID_FREEZE=                      2.0000000000000000
!GRID_FREEZE=                     -1.0000000000000000
GRID_WEIGHT_CUT=                     -1.0000000000000000
GRID_BLOCKSIZE=                     -1.0000000000000000
GRID_SPARSITY=                     -1.0000000000000000
GRID_RMAX=                     -1.0000000000000000
GTOTAL=                     -1.0000000000000000
HDIA=                     -1.0000000000000000
HDIACI=                     -1.0000000000000000
HEAT=                     -1.0000000000000000
HTOTAL=                     -1.0000000000000000
INCR_CORR=                     -1.0000000000000000
INCR_COUNT=                     -1.0000000000000000
INCR_READY=                     -1.0000000000000000
ISCHI=                     -1.0000000000000000
ITERATIONS=                      0.0000000000000000
KFIT=                      0.0000000000000000
LASTNELEC=                     17.0000000000000000
LASTSPIN=                      1.0000000000000000
LASTSYM=                      1.0000000000000000
LL=                      1.0000000000000000
MASSV=                      1.0000000000000000
MIN_ITER=                      1.0000000000000000
MIXANG=                      1.0000000000000000
MIXANGCI=                      1.0000000000000000
MPP_PROG=                      1.0000000000000000
MSENERGY=                      1.0000000000000000
NACME=                      1.0000000000000000
NBAS_CFIT=                      1.0000000000000000
NEWREC=                      1.0000000000000000
NGRID=                      1.0000000000000000
NPROC_MPP=                      1.0000000000000000
NPROC_SMP=                      1.0000000000000000
NUMSTEP=                      0.0000000000000000
OPNUC=                      0.0000000000000000
OPTCONVMX=                      0.0004044553496349
OPTCONVRMS=                      0.0000397379290342
OPTGRAD=                      0.0001745856890577
OPTGRADMX=                      0.0001476992236939
OPTGRADRMS=                      0.0000116390459372
OPTRMSMAX=                      0.0000116390459372
OPTSTEP=                      8.0000000000000000
ORBITAL=                   2100.1999999999998200
PAOINT_CFIT=                   2100.1999999999998200
PENALTY=                   2100.1999999999998200
PH1INT_CFIT=                   2100.1999999999998200
PH1VEC_CFIT=                   2100.1999999999998200
PH2INT_CFIT=                   2100.1999999999998200
PHASE=                   2100.1999999999998200
PI=                      3.1415926535897931
PMOINT_CFIT=                      3.1415926535897931
PMOVEC_CFIT=                      3.1415926535897931
POISSON_ECORR=                      3.1415926535897931
POISSON_ERROR=                      3.1415926535897931
POLXX=                      3.1415926535897931
POLXY=                      3.1415926535897931
POLXZ=                      3.1415926535897931
POLYY=                      3.1415926535897931
POLYZ=                      3.1415926535897931
POLZZ=                      3.1415926535897931
POLYX=                      3.1415926535897931
POLZX=                      3.1415926535897931
POLZY=                      3.1415926535897931
POVINT_CFIT=                      3.1415926535897931
ROOT=                      3.1415926535897931
RPDIST=                      3.1415926535897931
RPMIN=                      3.1415926535897931
RPMAX=                      3.1415926535897931
EPCON=                      3.1415926535897931
EPDIAG=                      3.1415926535897931
!MCACT=                      3.1415926535897931
!MCCLOSED=                      3.1415926535897931
!MCFREEZE=                      3.1415926535897931
!MCMS2=                      3.1415926535897931
!MCNEL=                      3.1415926535897931
!MCNSTSYM=                      3.1415926535897931
!MCSTATE=                      3.1415926535897931
!MCSYM=                      3.1415926535897931
!MCWEIGHT=                      3.1415926535897931
SEIG_MIN=                      0.0105504947733151
SEWPROP=                      1.0000000000000000
SMAT=                      1.0000000000000000
SMATCI=                      1.0000000000000000
STATUS=                      0.0000000000000000
SYSBLAS1=                      0.0000000000000000
SYSBLAS2=                      0.0000000000000000
SYSBLAS3=                      0.0000000000000000
SYSTEM_RC=                      0.0000000000000000
SYSTOT=                      2.0900000000000003
T1DIAG=                      2.0900000000000003
D1DIAG=                      2.0900000000000003
TASK=                      2.0900000000000003
TROV=                      2.0900000000000003
HMAT=                      2.0900000000000003
UMAT=                      2.0900000000000003
UMATCI=                      2.0900000000000003
VERSION=                2006001.0000000000000000
WALLBLAS1=                2006001.0000000000000000
WALLBLAS2=                2006001.0000000000000000
WALLBLAS3=                2006001.0000000000000000
WALLTOT=                     28.4200000000000017
ZPE=                     28.4200000000000017
!DFBASIS_COUL=                     28.4200000000000017
!DFBASIS_EXCH=                     28.4200000000000017
!DFBASIS_MP2=                     28.4200000000000017
!DFBASIS_CCSD=                     28.4200000000000017
!RIBASIS_MP2=                     28.4200000000000017
MODULE_ALMLOF=                     28.4200000000000017
MODULE_BENCH=                     28.4200000000000017
MODULE_CFIT=                     28.4200000000000017
MODULE_DEVELOP=                     28.4200000000000017
MODULE_DIRECT=                     28.4200000000000017
MODULE_DMSCF=                     28.4200000000000017
MODULE_DOC=                     28.4200000000000017
MODULE_DOCDEV=                     28.4200000000000017
MODULE_LCCSD=                     28.4200000000000017
MODULE_LOCAL=                     28.4200000000000017
MODULE_LX=                     28.4200000000000017
MODULE_MPP=                     28.4200000000000017
MODULE_COSMO=                     28.4200000000000017
MODULE_DFIT=                     28.4200000000000017
MODULE_EXPLICIT=                     28.4200000000000017
MODULE_VSCF=                     28.4200000000000017
MODULE_MRCC=                     28.4200000000000017
MODULE_CIDFT=                     28.4200000000000017
MODULE_CC2=                     28.4200000000000017
MODULE_SLATER=                     28.4200000000000017
MODULE_GCC=                     28.4200000000000017
DATE= 26-Feb-07
LASTORB=RHF
MACHINE=Linux-2.6.16-vidalinux6/bane.uchicago.edu(x86_64) 64 bit mpp version (path2.4/goto1.07_path_4)
METHODC=
METHODT=
OUTPUT=
PGROUP=C1
SEMI=
TIME=17:59:57
VDIAG=
UDIAG=
!AOINTADDSC=
TRANSFORM_FORCE=
SOLVE_ITER=
VSCF_FREQ=
VCI_FREQ=
!SURFREC=                      0.0000000000000000
!VSCFREC=                      0.0000000000000000
!VCIREC=                      0.0000000000000000
!SCFORB=                  21002.0000000000000000
!CIOCC=                  21002.0000000000000000
!CICORE=                  21002.0000000000000000
!CICLOS=                  21002.0000000000000000
!UNO_OCC=                  21002.0000000000000000
!UNO_CLOSED=                  21002.0000000000000000
!CINSTSYM=                  21002.0000000000000000
!CIISTSYM=                  21002.0000000000000000
!CIISTMS2=                  21002.0000000000000000
!CIISTNEL=                  21002.0000000000000000
!CIMS2=                  21002.0000000000000000
!NEWMOL=                      0.0000000000000000
!NEWSYM=                      0.0000000000000000
!NEWORIENT=                      0.0000000000000000
SLFILES=slscratch
NGSSTO=                      9.0000000000000000
SIN=SIN
COS=COS
TAN=TAN
ACOS=ACOS
ASIN=ASIN
ATAN=ATAN
COSH=COSH
SINH=SINH
TANH=TANH
ABS=ABS
MOD=MOD
ERF=ERF
REFC=REFC
ERFC=ERFC
HYPOT=HYPOT
J0=J0
J1=J1
JN=JN
GAMMA=GAMMA
LGAMMA=LGAMMA
Y0=Y0
Y1=Y1
YN=YN
EXP=EXP
LOG=LOG
LOG10=LOG10
SQRT=SQRT
INT=INT
NINT=NINT
MAX=MAX
MIN=MIN
COSMO=                      0.0000000000000000
COSMOIT=                      0.0000000000000000
COSMOES=                      0.0000000000000000
COSMOEDS=                      0.0000000000000000
COSMOEC=                      0.0000000000000000
COSMOEDCORR=                      0.0000000000000000
FEPSI=                      1.0000000000000000
SL_NSYM=                      1.0000000000000000
SL_System_BitSwi=                     32.0000000000000000
SL_Unique_atoms=                      7.0000000000000000
SL_Last_energy=                      7.0000000000000000
SL_GRAD=                      0.0000000000000000
SL_MAXUPD_Hessia=                      5.0000000000000000
SL_N_PRINT_CODES=                      5.0000000000000000
SL_PRINT_CODES=                      0.0000000000000000
SL_BasType=                      0.0000000000000000
SL_Energy_Pred=                      0.0000000000000000
SL_New_Coords=                      0.0000000000000000
SL_Total_Nuclear=                      0.0000000000000000
SL_Highest_Mltpl=                      1.0000000000000000
SCFOCC=                      1.0000000000000000
SCFCLOSED=                      1.0000000000000000
SCFCORE=                      1.0000000000000000
MCOCC=                      1.0000000000000000
MCCLOSED=                      1.0000000000000000
MCFROZEN=                      1.0000000000000000
MCCORE=                      1.0000000000000000
CIOCC=                      1.0000000000000000
CICLOSED=                      1.0000000000000000
CICORE=                      1.0000000000000000
CCOCC=                      1.0000000000000000
CCCLOSED=                      1.0000000000000000
CCCORE=                      1.0000000000000000
SRXC=                      1.0000000000000000
SRC=                      1.0000000000000000
SRX=                      1.0000000000000000
SRH=                      1.0000000000000000
E_EXCHANGE=                      1.0000000000000000
!LATTICE=                     -1.0000000000000000
!NEWLATTICE=                      0.0000000000000000
!LATGRAD_VAR=FALSE
!SEW_LATTICE=                      1.0000000000000000
LATGRADX=                      1.0000000000000000
LATGRADY=                      1.0000000000000000
LATGRADZ=                      1.0000000000000000
!SCALTABINIT=                      1.0000000000000000
!LOCAL=                      0.0000000000000000
!SAVEOCC=                      0.0000000000000000
!SAVEDOM=                     -1.0000000000000000
!RESTDOM=                     -1.0000000000000000
!SAVEDOM_HF=                     -1.0000000000000000
!RESTDOM_HF=                     -1.0000000000000000
!HESSREC=                      0.0000000000000000
!FREQREC=                      0.0000000000000000
!NMODREC=                      0.0000000000000000
!GTASKS=                      0.0000000000000000
!HTASKS=                      0.0000000000000000
!THRCHG=                      0.1000000000000000
!DEBUG=                     -1.0000000000000000
!CFIT_CPHF=                      0.0000000000000000
!RDOMAUX_CPHF=                      5.0000000000000000
!THRAO_CPHF=                      0.0000000000100000
!THRMO_CPHF=                      0.0000000000100000
!THROV_CPHF=                      0.0000000000010000
!THRSW_CPHF=                      0.0000000001000000
!THRPROD_CPHF=                      0.0000000000100000
!THRAOPR_CPHF=                      0.0000000000010000
!CFIT_SCFGRD=                      0.0000000000000000
!RDOMAUX_SCFGRD=                      7.0000000000000000
!THRAO_SCFGRD=                      0.0000000000100000
!THRMO_SCFGRD=                      0.0000000000100000
!THROV_SCFGRD=                      0.0000000000010000
!THRSW_SCFGRD=                      0.0000000001000000
!THRPROD_SCFGRD=                      0.0000000000100000
!THRAOPR_SCFGRD=                      0.0000000000010000
!LOCFIT_SCF=                      0.0000000000000000
!LOCFIT_MP2=                     -1.0000000000000000
RIDOM=                      0.0000000000000000
FCI_METHOD=                      0.0000000000000000
!CC2_METHOD=                      0.0000000000000000
BASIS2006=FALSE
B1=                      1.0895421710005622
B2=                      1.0844225762536766
A1=                    107.7589050488269890
B3=                      1.0866987893026891
A2=                    106.9178982606777170
D1=                    115.9281824223001540
B4=                      1.4997540217328400
A3=                    111.3045571539196460
D2=                   -122.4408798076069900
B5=                      1.0754422849081853
A4=                    119.1650909915651650
D3=                    180.0000000000000000
B6=                      1.0747048967922292
A5=                    119.8507395518627020
D4=                    154.6149371739659840
GX1=                      0.0000000000000000
GY1=                      0.0000000000000000
GZ1=                      0.0000000000000000
GX2=                      0.0000000000000000
GY2=                      0.0000000000000000
GZ2=                      2.0589361561924635
GX3=                      0.0000000000000000
GY3=                      1.9516109455169242
GZ3=                     -0.6250500099767173
GX4=                     -1.7669301458611106
GY4=                     -0.8590494683236254
GZ4=                     -0.5975890186322124
GX5=                      2.2302018170569702
GY5=                     -1.4117957746995971
GZ5=                     -1.0321299583721240
GX6=                      2.4649590028600508
GY6=                     -3.3744438728541759
GZ6=                     -0.5597856237886139
GX7=                      3.9182751463540653
GY7=                     -0.4032460082192360
GZ7=                     -1.5398518999326851
[Atoms] Angs
C     1    6         0.0000000000        0.0000000000        0.0000000000
H     2    1         0.0000000000        0.0000000000        1.0895421710
H     3    1         0.0000000000        1.0327481113       -0.3307622448
H     4    1        -0.9350192338       -0.4545894344       -0.3162305129
C     5    6         1.1801720623       -0.7470902042       -0.5461796920
H     6    1         1.3044002240       -1.7856789255       -0.2962258164
H     7    1         2.0734620628       -0.2133886133       -0.8148545923
[GTO]
  1 0
 s    6 1.00
  0.3047524900E+04  0.1834737091E-02
  0.4573695200E+03  0.1403732293E-01
  0.1039486800E+03  0.6884262165E-01
  0.2921015500E+02  0.2321844388E+00
  0.9286663000E+01  0.4679413476E+00
  0.3163927000E+01  0.3623119882E+00
 s    3 1.00
  0.7868272300E+01 -0.1193324245E+00
  0.1881288500E+01 -0.1608541561E+00
  0.5442492600E+00  0.1143456443E+01
 s    1 1.00
  0.1687144800E+00  0.1000000000E+01
 p    3 1.00
  0.7868272300E+01  0.6899906693E-01
  0.1881288500E+01  0.3164239597E+00
  0.5442492600E+00  0.7443082892E+00
 p    1 1.00
  0.1687144800E+00  0.1000000000E+01
 d    1 1.00
  0.8000000000E+00  0.1000000000E+01
  
  5 0
 s    6 1.00
  0.3047524900E+04  0.1834737091E-02
  0.4573695200E+03  0.1403732293E-01
  0.1039486800E+03  0.6884262165E-01
  0.2921015500E+02  0.2321844388E+00
  0.9286663000E+01  0.4679413476E+00
  0.3163927000E+01  0.3623119882E+00
 s    3 1.00
  0.7868272300E+01 -0.1193324245E+00
  0.1881288500E+01 -0.1608541561E+00
  0.5442492600E+00  0.1143456443E+01
 s    1 1.00
  0.1687144800E+00  0.1000000000E+01
 p    3 1.00
  0.7868272300E+01  0.6899906693E-01
  0.1881288500E+01  0.3164239597E+00
  0.5442492600E+00  0.7443082892E+00
 p    1 1.00
  0.1687144800E+00  0.1000000000E+01
 d    1 1.00
  0.8000000000E+00  0.1000000000E+01
  
  2 0
 s    3 1.00
  0.1873113700E+02  0.3349460400E-01
  0.2825394400E+01  0.2347269500E+00
  0.6401216900E+00  0.8137573301E+00
 s    1 1.00
  0.1612777600E+00  0.1000000000E+01
  
  3 0
 s    3 1.00
  0.1873113700E+02  0.3349460400E-01
  0.2825394400E+01  0.2347269500E+00
  0.6401216900E+00  0.8137573301E+00
 s    1 1.00
  0.1612777600E+00  0.1000000000E+01
  
  4 0
 s    3 1.00
  0.1873113700E+02  0.3349460400E-01
  0.2825394400E+01  0.2347269500E+00
  0.6401216900E+00  0.8137573301E+00
 s    1 1.00
  0.1612777600E+00  0.1000000000E+01
  
  6 0
 s    3 1.00
  0.1873113700E+02  0.3349460400E-01
  0.2825394400E+01  0.2347269500E+00
  0.6401216900E+00  0.8137573301E+00
 s    1 1.00
  0.1612777600E+00  0.1000000000E+01
  
  7 0
 s    3 1.00
  0.1873113700E+02  0.3349460400E-01
  0.2825394400E+01  0.2347269500E+00
  0.6401216900E+00  0.8137573301E+00
 s    1 1.00
  0.1612777600E+00  0.1000000000E+01
 
 
[MO]
 Ene=     -11.2134
 Spin= Alpha
 Occup=   2.000000
   1   0.38592833831
   2   0.00973969179
   3  -0.00467852243
   4  -0.00018794442
   5   0.00007359828
   6   0.00010697804
   7   0.00118459478
   8  -0.00045283405
   9  -0.00053923016
  10  -0.00018114949
  11   0.00003787278
  12   0.00014327671
  13   0.00030012102
  14   0.00027007123
  15  -0.00016446819
  16   0.91832901975
  17   0.02217747149
  18  -0.01066783807
  19   0.00009539727
  20   0.00009658370
  21   0.00045337415
  22  -0.00046638814
  23   0.00005093020
  24  -0.00032750121
  25   0.00005103382
  26   0.00015847613
  27  -0.00020950994
  28   0.00008359381
  29  -0.00009267314
  30  -0.00013097421
  31  -0.00020856458
  32   0.00169539901
  33  -0.00012404887
  34   0.00130800764
  35  -0.00012471266
  36   0.00168241501
  37  -0.00037807716
  38   0.00260722576
  39  -0.00037196457
  40   0.00264508254
 Ene=     -11.2125
 Spin= Alpha
 Occup=   2.000000
   1   0.91840915981
   2   0.02395106966
   3  -0.01760796981
   4   0.00019765891
   5  -0.00011717985
   6  -0.00008237946
   7  -0.00101685886
   8   0.00055011598
   9   0.00042522272
  10   0.00008379013
  11  -0.00000620170
  12  -0.00007758844
  13  -0.00013296579
  14  -0.00012020749
  15   0.00006772279
  16  -0.38604001969
  17  -0.00973214190
  18   0.00881084313
  19   0.00007213085
  20  -0.00011702851
  21  -0.00023919925
  22  -0.00151269959
  23   0.00109641848
  24   0.00092770105
  25  -0.00021552666
  26   0.00002570231
  27   0.00018982435
  28   0.00030550065
  29   0.00025206087
  30  -0.00011705043
  31   0.00011933229
  32   0.00276552938
  33   0.00007207606
  34   0.00290171039
  35   0.00007419341
  36   0.00276098306
  37  -0.00006228884
  38  -0.00091634618
  39  -0.00006471810
  40  -0.00099799651
 Ene=      -0.7074
 Spin= Alpha
 Occup=   2.000000
   1  -0.09629525423
   2   0.18816282778
   3   0.16294304052
   4   0.28420638205
   5  -0.17988677448
   6  -0.13248821437
   7   0.13070096928
   8  -0.08137249464
   9  -0.05728300648
  10   0.01046133034
  11  -0.00339248438
  12  -0.00706884596
  13  -0.01691029131
  14  -0.01226026331
  15   0.00802382346
  16  -0.11072558702
  17   0.21958670139
  18   0.18338942271
  19  -0.28394112883
  20   0.17394375397
  21   0.11036350980
  22  -0.11644574873
  23   0.07099883687
  24   0.04588346919
  25   0.00853993121
  26  -0.00362528963
  27  -0.00491464157
  28  -0.01598965355
  29  -0.01243088879
  30   0.00898633744
  31  -0.01894651116
  32  -0.05218053544
  33  -0.01924623054
  34  -0.05148849063
  35  -0.01875358240
  36  -0.05066779664
  37  -0.02828093108
  38  -0.06334240933
  39  -0.02863831668
  40  -0.06168340579
 Ene=      -0.6771
 Spin= Alpha
 Occup=   2.000000
   1   0.00926488741
   2  -0.01897463493
   3  -0.04754880962
   4  -0.02326272540
   5   0.01538211565
   6   0.01161982791
   7  -0.03648804033
   8  -0.00077546717
   9   0.01637280396
  10   0.00683008581