[Molden Format]
[Molpro variables]
NUMVAR=                    558.0000000000000000
PATCHLEVEL=                     34.0000000000000000
EV=                      0.0367493088676916
KJOULE=                      0.0003808798324129
KJOULE/MOL=                      0.0003808798324129
CM=                      0.0000045563352673
CM-1=                      0.0000045563352673
KCAL=                      0.0015936011178156
KCAL/MOL=                      0.0015936011178156
KELVIN=                      0.0000031668288611
HERTZ=                      0.0000000000000002
HZ=                      0.0000000000000002
TOA=                      0.5291772490000000
TOANG=                      0.5291772490000000
TORAD=                      0.0174532925199433
TOCM=                 219474.6306700000130000
TODEBYE=                      2.5415800000000002
TOEV=                     27.2113961000000018
TOHERTZ=       6579683899900000.0000000000000000
TOHZ=       6579683899900000.0000000000000000
TOK=                 315773.2999999999880000
TOKCAL=                    627.5095999999999780
TOKELVIN=                 315773.2999999999880000
TOKJ=                   2625.5000000000000000
TOKJOULE=                   2625.5000000000000000
ANG=                      1.8897259885789233
ANGSTROM=                      1.8897259885789233
IGNORE_UNDEF=                      2.0000000000000000
STRICTCHECK=                      0.0000000000000000
SEW_ONEEL=                      0.0000000000000000
CPPDONE=FALSE
DKROLL_DONE=                      0.0000000000000000
FOCKDONE=TRUE
GRADONE=FALSE
HESSDONE=FALSE
INTDONE=TRUE
SCFDONE=TRUE
MODUL_LCCSD=TRUE
MODUL_COSMO=TRUE
MODUL_VSCF=FALSE
MODUL_CFIT=TRUE
MODUL_MRCC=FALSE
MODUL_CIDFT=FALSE
MODUL_CC2=FALSE
MRCC_EXEC=
FITC_AO_SAVED=FALSE
FITC_MO_SAVED=FALSE
LSTYP=SEWARD
INTYP=INTS
GEOMTYP=ZMAT
GRADTYP=ALASKA
DIRECT=FALSE
DKROLL=FALSE
SYNCM=                      0.0000000000000000
DFTNAME=                      0.0000000000000000
DFTFUNC=                      0.0000000000000000
BASIS=6-31G*
BASISSETS=
ZSIGNX=
ZSIGNY=
ZSIGNZ=
CHARGE=
SCFCHARGE=
MCCHARGE=
CICHARGE=
CCCHARGE=
NELEC=                     18.0000000000000000
SCFNELEC=                     18.0000000000000000
MCNELEC=                     18.0000000000000000
CINELEC=                     18.0000000000000000
CCNELEC=                     18.0000000000000000
SPIN=                      0.0000000000000000
SCFSPIN=                      0.0000000000000000
MCSPIN=                      0.0000000000000000
CISPIN=                      0.0000000000000000
CCSPIN=                      0.0000000000000000
STATE=                      0.0000000000000000
SCFSTATE=                      0.0000000000000000
MCSTATE=                      0.0000000000000000
CISTATE=                      0.0000000000000000
SYMMETRY=                      0.0000000000000000
SCFSYMMETRY=                      0.0000000000000000
MCSYMMETRY=                      0.0000000000000000
CISYMMETRY=                      0.0000000000000000
CCSYMMETRY=                      0.0000000000000000
SCFSYMM=                      0.0000000000000000
MCSYMM=                      0.0000000000000000
CISYMM=                      0.0000000000000000
CCSYMM=                      0.0000000000000000
SCFSYM=                      0.0000000000000000
MCSYM=                      0.0000000000000000
CISYM=                      0.0000000000000000
CCSYM=                      0.0000000000000000
ZSYMEL=                      0.0000000000000000
WEIGHT=                      0.0000000000000000
MCWEIGHT=                      0.0000000000000000
LQUANT=                      0.0000000000000000
MCLQUANT=                      0.0000000000000000
OPTCONV=                      0.0006264072388435
QSDSTEP=                      0.0000000000000000
QSDIRC=                      0.0000000000000000
PROGRAM=LOCALI
CPUSTEP=                      0.0000000000000000
SYSSTEP=                      0.0100000000000000
WALLSTEP=                      0.0100000000000000
!PERT=                      0.0100000000000000
!DFMP2=                      0.0100000000000000
!DFSCF=                      0.0000000000000000
!DFHFENERG=                      0.0000000000000000
!SCSGRD=                      0.0000000000000000
ATCHARGE=                      0.0000000000000000
BASINP=                    610.0000000000000000
CARTESIAN=                    610.0000000000000000
CFIT=                    610.0000000000000000
CFIT_FRED=                    610.0000000000000000
CFIT_FRED_THR=                    610.0000000000000000
CHII2=                    610.0000000000000000
CHIRS=                    610.0000000000000000
COEFF=                    610.0000000000000000
CPU2IDX_CFIT=                    610.0000000000000000
CPU3IDX_CFIT=                    610.0000000000000000
CPUASMBL_CFIT=                    610.0000000000000000
CPUBLAS1=                    610.0000000000000000
CPUBLAS2=                    610.0000000000000000
CPUBLAS3=                    610.0000000000000000
CPUINT_DTRAF=                    610.0000000000000000
CPUSOLVE_CFIT=                    610.0000000000000000
CPUTOT=                     20.5100000000000016
CPUTR1_CFIT=                     20.5100000000000016
CPUTR2_CFIT=                     20.5100000000000016
CPUINV_CFIT=                     20.5100000000000016
CPUFIT_CFIT=                     20.5100000000000016
CPUTRANS_CFIT=                     20.5100000000000016
CPUSCREEN_CFIT=                     20.5100000000000016
CPUTRANS_DTRAF=                     20.5100000000000016
CPUTRA_DTRAF=                     20.5100000000000016
DALTON=                     20.5100000000000016
DARW=                     20.5100000000000016
DECAY=                     20.5100000000000016
DELE_CFIT=                     20.5100000000000016
DELG_CFIT=                     20.5100000000000016
DELTA=                     20.5100000000000016
DFTEXFAC=                     20.5100000000000016
DFTFAC=                     20.5100000000000016
DFTFUN=                     20.5100000000000016
DFTFUNS=                     20.5100000000000016
DMEX=                     20.5100000000000016
DMEY=                     20.5100000000000016
DMEZ=                     20.5100000000000016
DMNX=                     20.5100000000000016
DMNY=                     20.5100000000000016
DMNZ=                     20.5100000000000016
DMSCF=                     20.5100000000000016
DMSCF_Efield=                     20.5100000000000016
DMSCF_I=                     20.5100000000000016
DMSCF_J=                     20.5100000000000016
DMSCF_K=                     20.5100000000000016
DMSCF_N1=                     20.5100000000000016
DMSCF_N2=                     20.5100000000000016
DMSCF_NUC=                     20.5100000000000016
DMSCF_T=                     20.5100000000000016
DMSCF_V=                     20.5100000000000016
DMX=                      0.0000000000000000
DMY=                      0.0000000000000000
DMZ=                      0.0000000000000000
DMZCOR=                      0.0000000000000000
DM_RHO1=                      0.0000000000000000
DM_RVAL=                      0.0000000000000000
DUMMYATOMS=                      0.0000000000000000
FREQUENCIES=                      0.0000000000000000
EDISP=                      0.0000000000000000
EEDISP=                      0.0000000000000000
EINTRA=                      0.0000000000000000
EIONIC=                      0.0000000000000000
EMP2=                      0.0000000000000000
EMP2_SING=                      0.0000000000000000
EMP2_TRIP=                      0.0000000000000000
EMP2_SCS=                      0.0000000000000000
ECSING=                      0.0000000000000000
ECTRIP=                      0.0000000000000000
EMP2_R12=                      0.0000000000000000
EMP2_R12A=                      0.0000000000000000
EMP2R12_2AD=                      0.0000000000000000
EMP2R12_2A=                      0.0000000000000000
EMP2R12_2AP=                      0.0000000000000000
EMP2R12_2SAD=                      0.0000000000000000
EMP2R12_2SA=                      0.0000000000000000
EMP2R12_2SAP=                      0.0000000000000000
EMP2_R12_DIAG=                      0.0000000000000000
EMP2_R12_STRONG=                      0.0000000000000000
EMP2_R12_CLOSE=                      0.0000000000000000
EMP2_R12_WEAK=                      0.0000000000000000
EMP2_R12_DIST=                      0.0000000000000000
EMP2R=                      0.0000000000000000
EMP3=                      0.0000000000000000
EMP3R=                      0.0000000000000000
EMP4=                      0.0000000000000000
ENERGC=                      0.0000000000000000
ENERGD=                      0.0000000000000000
ENERGP=                      0.0000000000000000
ENERGR=                      0.0000000000000000
ENERGRR=                      0.0000000000000000
ENERGS=                      0.0000000000000000
ENERGT=                      0.0000000000000000
ENERGU=                      0.0000000000000000
ENERGW=                      0.0000000000000000
ENERGY=                      0.0000000000000000
ENERGY_MP=                      0.0000000000000000
ENUC=                     42.3839542234462101
EPDIST=                     42.3839542234462101
EPDIST_R12=                     42.3839542234462101
EPSUM=                     42.3839542234462101
EPSUM_R12=                     42.3839542234462101
EPS1=                     42.3839542234462101
EPS2=                     42.3839542234462101
EPS3=                     42.3839542234462101
EPS4=                     42.3839542234462101
EPS5=                     42.3839542234462101
EPS6=                     42.3839542234462101
EPS7=                     42.3839542234462101
EPS8=                     42.3839542234462101
EREL=                     42.3839542234462101
FLOPBLAS1=                     42.3839542234462101
FLOPBLAS2=                     42.3839542234462101
FLOPBLAS3=                     42.3839542234462101
FLOPDGM=                     42.3839542234462101
FLOPDGV=                     42.3839542234462101
FLOPMXM=                     42.3839542234462101
FLOPMXV=                     42.3839542234462101
FREQSTEP=                     42.3839542234462101
!RS2GRSTATE=                     42.3839542234462101
!RS2GRSYM=                     42.3839542234462101
GRADENERG=                    -79.2282560094590167
GRADEXFAC=                   9999.0000000000000000
GRADMETHOD=                      1.0000000000000000
GRADRECORD=                      1.0000000000000000
GRADX=                      1.0000000000000000
GRADY=                      1.0000000000000000
GRADZ=                      1.0000000000000000
GRADVAR=                      1.0000000000000000
GRID=                      1.0000000000000000
GRID_FREEZE=                      1.0000000000000000
!GRID_FREEZE=                     -1.0000000000000000
GRID_WEIGHT_CUT=                     -1.0000000000000000
GRID_BLOCKSIZE=                     -1.0000000000000000
GRID_SPARSITY=                     -1.0000000000000000
GRID_RMAX=                     -1.0000000000000000
GTOTAL=                     -1.0000000000000000
HDIA=                     -1.0000000000000000
HDIACI=                     -1.0000000000000000
HEAT=                     -1.0000000000000000
HTOTAL=                     -1.0000000000000000
INCR_CORR=                     -1.0000000000000000
INCR_COUNT=                     -1.0000000000000000
INCR_READY=                     -1.0000000000000000
ISCHI=                     -1.0000000000000000
ITERATIONS=                      0.0000000000000000
KFIT=                      0.0000000000000000
LASTNELEC=                     18.0000000000000000
LASTSPIN=                      0.0000000000000000
LASTSYM=                      1.0000000000000000
LL=                      1.0000000000000000
MASSV=                      1.0000000000000000
MIN_ITER=                      1.0000000000000000
MIXANG=                      1.0000000000000000
MIXANGCI=                      1.0000000000000000
MPP_PROG=                      1.0000000000000000
MSENERGY=                      1.0000000000000000
NACME=                      1.0000000000000000
NBAS_CFIT=                      1.0000000000000000
NEWREC=                      1.0000000000000000
NGRID=                      1.0000000000000000
NPROC_MPP=                      1.0000000000000000
NPROC_SMP=                      1.0000000000000000
NUMSTEP=                      0.0000000000000000
OPNUC=                      0.0000000000000000
OPTCONVMX=                      0.0003778981858602
OPTCONVRMS=                      0.0000348004021580
OPTGRAD=                      0.0001481163397872
OPTGRADMX=                      0.0000881438828207
OPTGRADRMS=                      0.0000082286855437
OPTRMSMAX=                      0.0000082286855437
OPTSTEP=                      6.0000000000000000
ORBITAL=                   2100.1999999999998200
PAOINT_CFIT=                   2100.1999999999998200
PENALTY=                   2100.1999999999998200
PH1INT_CFIT=                   2100.1999999999998200
PH1VEC_CFIT=                   2100.1999999999998200
PH2INT_CFIT=                   2100.1999999999998200
PHASE=                   2100.1999999999998200
PI=                      3.1415926535897931
PMOINT_CFIT=                      3.1415926535897931
PMOVEC_CFIT=                      3.1415926535897931
POISSON_ECORR=                      3.1415926535897931
POISSON_ERROR=                      3.1415926535897931
POLXX=                      3.1415926535897931
POLXY=                      3.1415926535897931
POLXZ=                      3.1415926535897931
POLYY=                      3.1415926535897931
POLYZ=                      3.1415926535897931
POLZZ=                      3.1415926535897931
POLYX=                      3.1415926535897931
POLZX=                      3.1415926535897931
POLZY=                      3.1415926535897931
POVINT_CFIT=                      3.1415926535897931
ROOT=                      3.1415926535897931
RPDIST=                      3.1415926535897931
RPMIN=                      3.1415926535897931
RPMAX=                      3.1415926535897931
EPCON=                      3.1415926535897931
EPDIAG=                      3.1415926535897931
!MCACT=                      3.1415926535897931
!MCCLOSED=                      3.1415926535897931
!MCFREEZE=                      3.1415926535897931
!MCMS2=                      3.1415926535897931
!MCNEL=                      3.1415926535897931
!MCNSTSYM=                      3.1415926535897931
!MCSTATE=                      3.1415926535897931
!MCSYM=                      3.1415926535897931
!MCWEIGHT=                      3.1415926535897931
SEIG_MIN=                      0.0092944610488976
SEWPROP=                      1.0000000000000000
SMAT=                      1.0000000000000000
SMATCI=                      1.0000000000000000
STATUS=                      0.0000000000000000
SYSBLAS1=                      0.0000000000000000
SYSBLAS2=                      0.0000000000000000
SYSBLAS3=                      0.0000000000000000
SYSTEM_RC=                      0.0000000000000000
SYSTOT=                      1.8200000000000001
T1DIAG=                      1.8200000000000001
D1DIAG=                      1.8200000000000001
TASK=                      1.8200000000000001
TROV=                      1.8200000000000001
HMAT=                      1.8200000000000001
UMAT=                      1.8200000000000001
UMATCI=                      1.8200000000000001
VERSION=                2006001.0000000000000000
WALLBLAS1=                2006001.0000000000000000
WALLBLAS2=                2006001.0000000000000000
WALLBLAS3=                2006001.0000000000000000
WALLTOT=                     22.3300000000000018
ZPE=                     22.3300000000000018
!DFBASIS_COUL=                     22.3300000000000018
!DFBASIS_EXCH=                     22.3300000000000018
!DFBASIS_MP2=                     22.3300000000000018
!DFBASIS_CCSD=                     22.3300000000000018
!RIBASIS_MP2=                     22.3300000000000018
MODULE_ALMLOF=                     22.3300000000000018
MODULE_BENCH=                     22.3300000000000018
MODULE_CFIT=                     22.3300000000000018
MODULE_DEVELOP=                     22.3300000000000018
MODULE_DIRECT=                     22.3300000000000018
MODULE_DMSCF=                     22.3300000000000018
MODULE_DOC=                     22.3300000000000018
MODULE_DOCDEV=                     22.3300000000000018
MODULE_LCCSD=                     22.3300000000000018
MODULE_LOCAL=                     22.3300000000000018
MODULE_LX=                     22.3300000000000018
MODULE_MPP=                     22.3300000000000018
MODULE_COSMO=                     22.3300000000000018
MODULE_DFIT=                     22.3300000000000018
MODULE_EXPLICIT=                     22.3300000000000018
MODULE_VSCF=                     22.3300000000000018
MODULE_MRCC=                     22.3300000000000018
MODULE_CIDFT=                     22.3300000000000018
MODULE_CC2=                     22.3300000000000018
MODULE_SLATER=                     22.3300000000000018
MODULE_GCC=                     22.3300000000000018
DATE= 27-Feb-07
LASTORB=RHF
MACHINE=Linux-2.6.16-vidalinux6/bane.uchicago.edu(x86_64) 64 bit mpp version (path2.4/goto1.07_path_4)
METHODC=
METHODT=
OUTPUT=
PGROUP=C1
SEMI=
TIME=09:54:31
VDIAG=
UDIAG=
!AOINTADDSC=
TRANSFORM_FORCE=
SOLVE_ITER=
VSCF_FREQ=
VCI_FREQ=
!SURFREC=                      0.0000000000000000
!VSCFREC=                      0.0000000000000000
!VCIREC=                      0.0000000000000000
!SCFORB=                  21002.0000000000000000
!CIOCC=                  21002.0000000000000000
!CICORE=                  21002.0000000000000000
!CICLOS=                  21002.0000000000000000
!UNO_OCC=                  21002.0000000000000000
!UNO_CLOSED=                  21002.0000000000000000
!CINSTSYM=                  21002.0000000000000000
!CIISTSYM=                  21002.0000000000000000
!CIISTMS2=                  21002.0000000000000000
!CIISTNEL=                  21002.0000000000000000
!CIMS2=                  21002.0000000000000000
!NEWMOL=                      0.0000000000000000
!NEWSYM=                      0.0000000000000000
!NEWORIENT=                      0.0000000000000000
SLFILES=slscratch
NGSSTO=                      9.0000000000000000
SIN=SIN
COS=COS
TAN=TAN
ACOS=ACOS
ASIN=ASIN
ATAN=ATAN
COSH=COSH
SINH=SINH
TANH=TANH
ABS=ABS
MOD=MOD
ERF=ERF
REFC=REFC
ERFC=ERFC
HYPOT=HYPOT
J0=J0
J1=J1
JN=JN
GAMMA=GAMMA
LGAMMA=LGAMMA
Y0=Y0
Y1=Y1
YN=YN
EXP=EXP
LOG=LOG
LOG10=LOG10
SQRT=SQRT
INT=INT
NINT=NINT
MAX=MAX
MIN=MIN
COSMO=                      0.0000000000000000
COSMOIT=                      0.0000000000000000
COSMOES=                      0.0000000000000000
COSMOEDS=                      0.0000000000000000
COSMOEC=                      0.0000000000000000
COSMOEDCORR=                      0.0000000000000000
FEPSI=                      1.0000000000000000
SL_NSYM=                      1.0000000000000000
SL_System_BitSwi=                     32.0000000000000000
SL_Unique_atoms=                      8.0000000000000000
SL_Last_energy=                      8.0000000000000000
SL_GRAD=                      0.0000000000000000
SL_MAXUPD_Hessia=                      5.0000000000000000
SL_N_PRINT_CODES=                      5.0000000000000000
SL_PRINT_CODES=                      0.0000000000000000
SL_BasType=                      0.0000000000000000
SL_Energy_Pred=                      0.0000000000000000
SL_New_Coords=                      0.0000000000000000
SL_Total_Nuclear=                      0.0000000000000000
SL_Highest_Mltpl=                      1.0000000000000000
SCFOCC=                      1.0000000000000000
SCFCLOSED=                      1.0000000000000000
SCFCORE=                      1.0000000000000000
MCOCC=                      1.0000000000000000
MCCLOSED=                      1.0000000000000000
MCFROZEN=                      1.0000000000000000
MCCORE=                      1.0000000000000000
CIOCC=                      1.0000000000000000
CICLOSED=                      1.0000000000000000
CICORE=                      1.0000000000000000
CCOCC=                      1.0000000000000000
CCCLOSED=                      1.0000000000000000
CCCORE=                      1.0000000000000000
SRXC=                      1.0000000000000000
SRC=                      1.0000000000000000
SRX=                      1.0000000000000000
SRH=                      1.0000000000000000
E_EXCHANGE=                      1.0000000000000000
!LATTICE=                     -1.0000000000000000
!NEWLATTICE=                      0.0000000000000000
!LATGRAD_VAR=FALSE
!SEW_LATTICE=                      1.0000000000000000
LATGRADX=                      1.0000000000000000
LATGRADY=                      1.0000000000000000
LATGRADZ=                      1.0000000000000000
!SCALTABINIT=                      1.0000000000000000
!LOCAL=                      0.0000000000000000
!SAVEOCC=                      0.0000000000000000
!SAVEDOM=                     -1.0000000000000000
!RESTDOM=                     -1.0000000000000000
!SAVEDOM_HF=                     -1.0000000000000000
!RESTDOM_HF=                     -1.0000000000000000
!HESSREC=                      0.0000000000000000
!FREQREC=                      0.0000000000000000
!NMODREC=                      0.0000000000000000
!GTASKS=                      0.0000000000000000
!HTASKS=                      0.0000000000000000
!THRCHG=                      0.1000000000000000
!DEBUG=                     -1.0000000000000000
!CFIT_CPHF=                      0.0000000000000000
!RDOMAUX_CPHF=                      5.0000000000000000
!THRAO_CPHF=                      0.0000000000100000
!THRMO_CPHF=                      0.0000000000100000
!THROV_CPHF=                      0.0000000000010000
!THRSW_CPHF=                      0.0000000001000000
!THRPROD_CPHF=                      0.0000000000100000
!THRAOPR_CPHF=                      0.0000000000010000
!CFIT_SCFGRD=                      0.0000000000000000
!RDOMAUX_SCFGRD=                      7.0000000000000000
!THRAO_SCFGRD=                      0.0000000000100000
!THRMO_SCFGRD=                      0.0000000000100000
!THROV_SCFGRD=                      0.0000000000010000
!THRSW_SCFGRD=                      0.0000000001000000
!THRPROD_SCFGRD=                      0.0000000000100000
!THRAOPR_SCFGRD=                      0.0000000000010000
!LOCFIT_SCF=                      0.0000000000000000
!LOCFIT_MP2=                     -1.0000000000000000
RIDOM=                      0.0000000000000000
FCI_METHOD=                      0.0000000000000000
!CC2_METHOD=                      0.0000000000000000
BASIS2006=FALSE
B1=                      1.0856415282690690
B2=                      1.0856591891177043
A1=                    107.6814993557266430
B3=                      1.0856460532623733
A2=                    107.6864407246057030
D1=                    115.8654747706299870
B4=                      1.5272518749103210
A3=                    111.2007121573559090
D2=                   -122.0656961140523720
B5=                      1.0856416763442154
A4=                    111.2070199395291180
D3=                    180.0000000000000000
B6=                      1.0856546196420558
A5=                    111.2019456323512830
D4=                    120.0040606556696760
B7=                      1.0856511278749739
A6=                    111.2007927865989250
D5=                    239.9995965334113070
GX1=                      0.0000000000000000
GY1=                      0.0000000000000000
GZ1=                      0.0000000000000000
GX2=                      0.0000000000000000
GY2=                      0.0000000000000000
GZ2=                      2.0515650102505996
GX3=                      0.0000000000000000
GY3=                      1.9546800622492886
GZ3=                     -0.6231226084651121
GX4=                     -1.7587921790573264
GY4=                     -0.8527142834159608
GZ4=                     -0.6232836424591703
GX5=                      2.2802516536915665
GY5=                     -1.4282803181025654
GZ5=                     -1.0440158656302032
GX6=                      2.2804430563633851
GY6=                     -3.3829652564668691
GZ6=                     -0.4210175554196727
GX7=                      4.0389655373933655
GY7=                     -0.5752897225428075
GZ7=                     -0.4208361011693862
GX8=                      2.2801289206036364
GY8=                     -1.4280475636334296
GZ8=                     -3.0955989996312629
[Atoms] Angs
C     1    6         0.0000000000        0.0000000000        0.0000000000
H     2    1         0.0000000000        0.0000000000        1.0856415283
H     3    1         0.0000000000        1.0343722180       -0.3297423077
H     4    1        -0.9307128069       -0.4512369987       -0.3298275233
C     5    6         1.2066572971       -0.7558134495       -0.5524694437
H     6    1         1.2067585831       -1.7901882479       -0.2227929118
H     7    1         2.1373286719       -0.3044302328       -0.2226968903
H     8    1         1.2065923496       -0.7556902812       -1.6381205626
[GTO]
  1 0
 s    6 1.00
  0.3047524900E+04  0.1834737091E-02
  0.4573695200E+03  0.1403732293E-01
  0.1039486800E+03  0.6884262165E-01
  0.2921015500E+02  0.2321844388E+00
  0.9286663000E+01  0.4679413476E+00
  0.3163927000E+01  0.3623119882E+00
 s    3 1.00
  0.7868272300E+01 -0.1193324245E+00
  0.1881288500E+01 -0.1608541561E+00
  0.5442492600E+00  0.1143456443E+01
 s    1 1.00
  0.1687144800E+00  0.1000000000E+01
 p    3 1.00
  0.7868272300E+01  0.6899906693E-01
  0.1881288500E+01  0.3164239597E+00
  0.5442492600E+00  0.7443082892E+00
 p    1 1.00
  0.1687144800E+00  0.1000000000E+01
 d    1 1.00
  0.8000000000E+00  0.1000000000E+01
  
  5 0
 s    6 1.00
  0.3047524900E+04  0.1834737091E-02
  0.4573695200E+03  0.1403732293E-01
  0.1039486800E+03  0.6884262165E-01
  0.2921015500E+02  0.2321844388E+00
  0.9286663000E+01  0.4679413476E+00
  0.3163927000E+01  0.3623119882E+00
 s    3 1.00
  0.7868272300E+01 -0.1193324245E+00
  0.1881288500E+01 -0.1608541561E+00
  0.5442492600E+00  0.1143456443E+01
 s    1 1.00
  0.1687144800E+00  0.1000000000E+01
 p    3 1.00
  0.7868272300E+01  0.6899906693E-01
  0.1881288500E+01  0.3164239597E+00
  0.5442492600E+00  0.7443082892E+00
 p    1 1.00
  0.1687144800E+00  0.1000000000E+01
 d    1 1.00
  0.8000000000E+00  0.1000000000E+01
  
  2 0
 s    3 1.00
  0.1873113700E+02  0.3349460400E-01
  0.2825394400E+01  0.2347269500E+00
  0.6401216900E+00  0.8137573301E+00
 s    1 1.00
  0.1612777600E+00  0.1000000000E+01
  
  3 0
 s    3 1.00
  0.1873113700E+02  0.3349460400E-01
  0.2825394400E+01  0.2347269500E+00
  0.6401216900E+00  0.8137573301E+00
 s    1 1.00
  0.1612777600E+00  0.1000000000E+01
  
  4 0
 s    3 1.00
  0.1873113700E+02  0.3349460400E-01
  0.2825394400E+01  0.2347269500E+00
  0.6401216900E+00  0.8137573301E+00
 s    1 1.00
  0.1612777600E+00  0.1000000000E+01
  
  6 0
 s    3 1.00
  0.1873113700E+02  0.3349460400E-01
  0.2825394400E+01  0.2347269500E+00
  0.6401216900E+00  0.8137573301E+00
 s    1 1.00
  0.1612777600E+00  0.1000000000E+01
  
  7 0
 s    3 1.00
  0.1873113700E+02  0.3349460400E-01
  0.2825394400E+01  0.2347269500E+00
  0.6401216900E+00  0.8137573301E+00
 s    1 1.00
  0.1612777600E+00  0.1000000000E+01
  
  8 0
 s    3 1.00
  0.1873113700E+02  0.3349460400E-01
  0.2825394400E+01  0.2347269500E+00
  0.6401216900E+00  0.8137573301E+00
 s    1 1.00
  0.1612777600E+00  0.1000000000E+01
 
 
[MO]
 Ene=     -11.2066
 Spin= Alpha
 Occup=   2.000000
   1   0.70345707496
   2   0.01798722261
   3  -0.00997769710
   4  -0.00000574499
   5   0.00000366113
   6   0.00000261286
   7   0.00080457388
   8  -0.00050430979
   9  -0.00036829480
  10  -0.00014551357
  11   0.00004418789
  12   0.00010132568
  13   0.00022587872
  14   0.00016510888
  15  -0.00010338807
  16   0.70529488304
  17   0.01803556288
  18  -0.01001830879
  19   0.00000552534
  20  -0.00000342738
  21  -0.00000256415
  22  -0.00080064433
  23   0.00050134775
  24   0.00036674792
  25  -0.00014524157
  26   0.00004418392
  27   0.00010105765
  28   0.00022538875
  29   0.00016475278
  30  -0.00010321187
  31  -0.00013058167
  32   0.00235938567
  33  -0.00013047405
  34   0.00235949092
  35  -0.00013057579
  36   0.00235934645
  37  -0.00013017956
  38   0.00236501699
  39  -0.00013011115
  40   0.00236504527
  41  -0.00013009180
  42   0.00236511965
 Ene=     -11.2060
 Spin= Alpha
 Occup=   2.000000
   1   0.70539485944
   2   0.01854180928
   3  -0.01547106266
   4   0.00008294917
   5  -0.00005190425
   6  -0.00003799357
   7  -0.00147475894
   8   0.00092349194
   9   0.00067531019
  10   0.00012105289
  11  -0.00003682943
  12  -0.00008422346
  13  -0.00018784411
  14  -0.00013731228
  15   0.00008602361
  16  -0.70355731896
  17  -0.01849483250
  18   0.01544487801
  19   0.00008299399
  20  -0.00005201150
  21  -0.00003796784
  22  -0.00147690824
  23   0.00092522768
  24   0.00067605098
  25  -0.00012139960
  26   0.00003687652
  27   0.00008452308
  28   0.00018844072
  29   0.00013773677
  30  -0.00008626451
  31   0.00015841375
  32   0.00216509028
  33   0.00015847739
  34   0.00216517072
  35   0.00015841601
  36   0.00216508759
  37  -0.00015874308
  38  -0.00215886957
  39  -0.00015877315
  40  -0.00215890939
  41  -0.00015878963
  42  -0.00215897358
 Ene=      -0.6745
 Spin= Alpha
 Occup=   2.000000
   1  -0.09739395577
   2   0.18871836214
   3   0.17220531803
   4   0.28669029243
   5  -0.17959029969
   6  -0.13125575115
   7   0.13661366519
   8  -0.08558009382
   9  -0.06254566172
  10   0.01047835799
  11  -0.00318452970
  12  -0.00729382829
  13  -0.01626342560
  14  -0.01188743945
  15   0.00744589654
  16  -0.09739154684
  17   0.18871344114
  18   0.17219830201
  19  -0.28669890936
  20   0.17956643510
  21   0.13127316835
  22  -0.13661783963
  23   0.08556593979
  24   0.06255495481