 Entering Gaussian System, Link 0=g03
 Initial command:
 /software/gaussian/g03_B.4_7.4.2/g03/l1.exe /scratch/madjet/G03-046710/Gau-3256919.inp -scrdir=/scratch/madjet/G03-046710/
 Entering Link 1 = /software/gaussian/g03_B.4_7.4.2/g03/l1.exe PID=   3257106.
  
 Copyright (c) 1988,1990,1992,1993,1995,1998,2003, Gaussian, Inc.
                  All Rights Reserved.
  
 This is the Gaussian(R) 03 program.  It is based on the
 the Gaussian(R) 98 system (copyright 1998, Gaussian, Inc.),
 the Gaussian(R) 94 system (copyright 1995, Gaussian, Inc.),
 the Gaussian 92(TM) system (copyright 1992, Gaussian, Inc.),
 the Gaussian 90(TM) system (copyright 1990, Gaussian, Inc.),
 the Gaussian 88(TM) system (copyright 1988, Gaussian, Inc.),
 the Gaussian 86(TM) system (copyright 1986, Carnegie Mellon
 University), and the Gaussian 82(TM) system (copyright 1983,
 Carnegie Mellon University). Gaussian is a federally registered
 trademark of Gaussian, Inc.
  
 This software contains proprietary and confidential information,
 including trade secrets, belonging to Gaussian, Inc.
  
 This software is provided under written license and may be
 used, copied, transmitted, or stored only in accord with that
 written license.
  
 The following legend is applicable only to US Government
 contracts under DFARS:
  
                    RESTRICTED RIGHTS LEGEND
  
 Use, duplication or disclosure by the US Government is subject
 to restrictions as set forth in subparagraph (c)(1)(ii) of the
 Rights in Technical Data and Computer Software clause at DFARS
 252.227-7013.
  
 Gaussian, Inc.
 Carnegie Office Park, Building 6, Pittsburgh, PA 15106 USA
  
 The following legend is applicable only to US Government
 contracts under FAR:
  
                    RESTRICTED RIGHTS LEGEND
  
 Use, reproduction and disclosure by the US Government is subject
 to restrictions as set forth in subparagraph (c) of the
 Commercial Computer Software - Restricted Rights clause at FAR
 52.227-19.
  
 Gaussian, Inc.
 Carnegie Office Park, Building 6, Pittsburgh, PA 15106 USA
  
  
 ---------------------------------------------------------------
 Warning -- This program may not be used in any manner that
 competes with the business of Gaussian, Inc. or will provide
 assistance to any competitor of Gaussian, Inc.  The licensee
 of this program is prohibited from giving any competitor of
 Gaussian, Inc. access to this program.  By using this program,
 the user acknowledges that Gaussian, Inc. is engaged in the
 business of creating and licensing software in the field of
 computational chemistry and represents and warrants to the
 licensee that it is not a competitor of Gaussian, Inc. and that
 it will not use this program in any manner prohibited above.
 ---------------------------------------------------------------
  

 Cite this work as:
 Gaussian 03, Revision B.04,
 M. J. Frisch, G. W. Trucks, H. B. Schlegel, G. E. Scuseria, 
 M. A. Robb, J. R. Cheeseman, J. A. Montgomery, Jr., T. Vreven, 
 K. N. Kudin, J. C. Burant, J. M. Millam, S. S. Iyengar, J. Tomasi, 
 V. Barone, B. Mennucci, M. Cossi, G. Scalmani, N. Rega, 
 G. A. Petersson, H. Nakatsuji, M. Hada, M. Ehara, K. Toyota, 
 R. Fukuda, J. Hasegawa, M. Ishida, T. Nakajima, Y. Honda, O. Kitao, 
 H. Nakai, M. Klene, X. Li, J. E. Knox, H. P. Hratchian, J. B. Cross, 
 C. Adamo, J. Jaramillo, R. Gomperts, R. E. Stratmann, O. Yazyev, 
 A. J. Austin, R. Cammi, C. Pomelli, J. W. Ochterski, P. Y. Ayala, 
 K. Morokuma, G. A. Voth, P. Salvador, J. J. Dannenberg, 
 V. G. Zakrzewski, S. Dapprich, A. D. Daniels, M. C. Strain, 
 O. Farkas, D. K. Malick, A. D. Rabuck, K. Raghavachari, 
 J. B. Foresman, J. V. Ortiz, Q. Cui, A. G. Baboul, S. Clifford, 
 J. Cioslowski, B. B. Stefanov, G. Liu, A. Liashenko, P. Piskorz, 
 I. Komaromi, R. L. Martin, D. J. Fox, T. Keith, M. A. Al-Laham, 
 C. Y. Peng, A. Nanayakkara, M. Challacombe, P. M. W. Gill, 
 B. Johnson, W. Chen, M. W. Wong, C. Gonzalez, and J. A. Pople, 
 Gaussian, Inc., Pittsburgh PA, 2003.
 
 *****************************************
 Gaussian 03:  SGI64-G03RevB.04 2-Jun-2003
                31-Jul-2007 
 *****************************************
 %RWF=/scratch/madjet/G03-046710.RWF#01.rwf,16GB,/scratch2/madjet/G03-046710.RWF#
 02.rwf,-1
 %NoSave
 %NProc=2
 Will use up to    2 processors via shared memory.
 ----------------------------------------------------------------------
 #P OPBE/LANL2DZ nosymmetry gfoldprint SCF(tight) pop=(regular,npa) GFI
 NPUT IOP(6/7=3)
 ----------------------------------------------------------------------
 1/38=1/1;
 2/15=1,17=6,18=5,40=1/2;
 3/5=6,6=3,11=2,16=1,24=11,25=1,30=1,74=2109/1,2,3;
 4//1;
 5/5=2,32=2,38=5/2;
 6/7=3,28=1,40=-1/1,7;
 99/5=1,9=1/99;
 Leave Link    1 at Tue Jul 31 04:14:44 2007, MaxMem=          0 cpu:       1.1
 (Enter /software/gaussian/g03_B.4_7.4.2/g03/l101.exe)
 ----
 Test
 ----
 Symbolic Z-matrix:
 Charge =  1 Multiplicity = 6
 C                    -0.0041    0.00116   0.00241 
 C                     0.00051   0.00521   1.45586 
 N                     1.32203   0.0058    1.92296 
 C                     2.12365   0.01362   0.80155 
 C                     1.31218   0.00515  -0.40273 
 C                    -1.12822  -0.00806   2.27075 
 C                    -1.15119  -0.02771   3.6899 
 N                    -0.02977  -0.02892   4.49157 
 C                    -0.49682  -0.0521    5.8129 
 C                    -1.95006  -0.0772    5.8172 
 C                    -2.35522  -0.06328   4.501 
 C                     0.3182   -0.06746   6.94151 
 C                     1.73749  -0.06732   6.96444 
 N                     2.53911  -0.04353   5.84322 
 C                     3.86062  -0.05388   6.31022 
 C                     3.86527  -0.09673   7.76303 
 C                     2.54899  -0.10629   8.16809 
 C                     4.98935  -0.04348   5.49528 
 C                     5.01225  -0.02595   4.07612 
 C                     6.21633  -0.03781   3.26441 
 C                     5.81118  -0.01843   1.94827 
 C                     4.3579    0.00341   1.95319 
 N                     3.8908   -0.00878   3.27466 
 Fe                    1.93007   0.35931   3.88799 
 O                     1.92799   1.99312   3.90762 
 C                     3.54292   0.01586   0.82452 
 H                    -2.57322  -0.10757   6.70483 
 H                    -3.36986  -0.07918   4.11742 
 H                    -0.18219  -0.08791   7.91007 
 H                     4.75323  -0.12229   8.38594 
 H                     6.43438  -0.02439   1.06018 
 H                    -0.89202  -0.00956  -0.62097 
 H                     2.16566  -0.13997   9.18239 
 H                     7.23102  -0.06137   3.64748 
 H                     1.69554  -0.00066  -1.41756 
 H                     5.9581   -0.05623   5.99556 
 H                     4.04336   0.02204  -0.14422 
 H                    -2.09694  -0.00955   1.77025 
 
                    Isotopes and Nuclear Properties:

  Atom         1           2           3           4           5           6           7           8           9          10
 IAtWgt=          12          12          14          12          12          12          12          14          12          12
 AtmWgt=  12.0000000  12.0000000  14.0030740  12.0000000  12.0000000  12.0000000  12.0000000  14.0030740  12.0000000  12.0000000
 IAtSpn=           0           0           2           0           0           0           0           2           0           0
 AtZEff=   0.0000000   0.0000000   0.0000000   0.0000000   0.0000000   0.0000000   0.0000000   0.0000000   0.0000000   0.0000000
 AtQMom=   0.0000000   0.0000000   1.5600000   0.0000000   0.0000000   0.0000000   0.0000000   1.5600000   0.0000000   0.0000000
 AtGFac=   0.0000000   0.0000000   0.4037610   0.0000000   0.0000000   0.0000000   0.0000000   0.4037610   0.0000000   0.0000000

  Atom        11          12          13          14          15          16          17          18          19          20
 IAtWgt=          12          12          12          14          12          12          12          12          12          12
 AtmWgt=  12.0000000  12.0000000  12.0000000  14.0030740  12.0000000  12.0000000  12.0000000  12.0000000  12.0000000  12.0000000
 IAtSpn=           0           0           0           2           0           0           0           0           0           0
 AtZEff=   0.0000000   0.0000000   0.0000000   0.0000000   0.0000000   0.0000000   0.0000000   0.0000000   0.0000000   0.0000000
 AtQMom=   0.0000000   0.0000000   0.0000000   1.5600000   0.0000000   0.0000000   0.0000000   0.0000000   0.0000000   0.0000000
 AtGFac=   0.0000000   0.0000000   0.0000000   0.4037610   0.0000000   0.0000000   0.0000000   0.0000000   0.0000000   0.0000000

  Atom        21          22          23          24          25          26          27          28          29          30
 IAtWgt=          12          12          14          56          16          12           1           1           1           1
 AtmWgt=  12.0000000  12.0000000  14.0030740  55.9349393  15.9949146  12.0000000   1.0078250   1.0078250   1.0078250   1.0078250
 IAtSpn=           0           0           2           0           0           0           1           1           1           1
 AtZEff=   0.0000000   0.0000000   0.0000000   0.0000000   0.0000000   0.0000000   0.0000000   0.0000000   0.0000000   0.0000000
 AtQMom=   0.0000000   0.0000000   1.5600000   0.0000000   0.0000000   0.0000000   0.0000000   0.0000000   0.0000000   0.0000000
 AtGFac=   0.0000000   0.0000000   0.4037610   0.0000000   0.0000000   0.0000000   2.7928460   2.7928460   2.7928460   2.7928460

  Atom        31          32          33          34          35          36          37          38
 IAtWgt=           1           1           1           1           1           1           1           1
 AtmWgt=   1.0078250   1.0078250   1.0078250   1.0078250   1.0078250   1.0078250   1.0078250   1.0078250
 IAtSpn=           1           1           1           1           1           1           1           1
 AtZEff=   0.0000000   0.0000000   0.0000000   0.0000000   0.0000000   0.0000000   0.0000000   0.0000000
 AtQMom=   0.0000000   0.0000000   0.0000000   0.0000000   0.0000000   0.0000000   0.0000000   0.0000000
 AtGFac=   2.7928460   2.7928460   2.7928460   2.7928460   2.7928460   2.7928460   2.7928460   2.7928460
 Leave Link  101 at Tue Jul 31 04:14:44 2007, MaxMem=    6291456 cpu:       0.3
 (Enter /software/gaussian/g03_B.4_7.4.2/g03/l202.exe)
                          Input orientation:                          
 ---------------------------------------------------------------------
 Center     Atomic     Atomic              Coordinates (Angstroms)
 Number     Number      Type              X           Y           Z
 ---------------------------------------------------------------------
    1          6             0       -0.004100    0.001160    0.002410
    2          6             0        0.000510    0.005210    1.455860
    3          7             0        1.322030    0.005800    1.922960
    4          6             0        2.123650    0.013620    0.801550
    5          6             0        1.312180    0.005150   -0.402730
    6          6             0       -1.128220   -0.008060    2.270750
    7          6             0       -1.151190   -0.027710    3.689900
    8          7             0       -0.029770   -0.028920    4.491570
    9          6             0       -0.496820   -0.052100    5.812900
   10          6             0       -1.950060   -0.077200    5.817200
   11          6             0       -2.355220   -0.063280    4.501000
   12          6             0        0.318200   -0.067460    6.941510
   13          6             0        1.737490   -0.067320    6.964440
   14          7             0        2.539110   -0.043530    5.843220
   15          6             0        3.860620   -0.053880    6.310220
   16          6             0        3.865270   -0.096730    7.763030
   17          6             0        2.548990   -0.106290    8.168090
   18          6             0        4.989350   -0.043480    5.495280
   19          6             0        5.012250   -0.025950    4.076120
   20          6             0        6.216330   -0.037810    3.264410
   21          6             0        5.811180   -0.018430    1.948270
   22          6             0        4.357900    0.003410    1.953190
   23          7             0        3.890800   -0.008780    3.274660
   24         26             0        1.930070    0.359310    3.887990
   25          8             0        1.927990    1.993120    3.907620
   26          6             0        3.542920    0.015860    0.824520
   27          1             0       -2.573220   -0.107570    6.704830
   28          1             0       -3.369860   -0.079180    4.117420
   29          1             0       -0.182190   -0.087910    7.910070
   30          1             0        4.753230   -0.122290    8.385940
   31          1             0        6.434380   -0.024390    1.060180
   32          1             0       -0.892020   -0.009560   -0.620970
   33          1             0        2.165660   -0.139970    9.182390
   34          1             0        7.231020   -0.061370    3.647480
   35          1             0        1.695540   -0.000660   -1.417560
   36          1             0        5.958100   -0.056230    5.995560
   37          1             0        4.043360    0.022040   -0.144220
   38          1             0       -2.096940   -0.009550    1.770250
 ---------------------------------------------------------------------
                    Distance matrix (angstroms):
                    1          2          3          4          5
     1  C    0.000000
     2  C    1.453463   0.000000
     3  N    2.333914   1.401641   0.000000
     4  C    2.272906   2.221692   1.378483   0.000000
     5  C    1.377225   2.274826   2.325711   1.452186   0.000000
     6  C    2.531619   1.392212   2.474848   3.568428   3.619837
     7  C    3.861895   2.513649   3.039740   4.366790   4.776912
     8  N    4.489334   3.036053   2.902813   4.272619   5.075053
     9  C    5.831587   4.385706   4.294555   5.655512   6.473779
    10  C    6.132266   4.778368   5.087098   6.462206   7.023996
    11  C    5.076340   3.850589   4.491462   5.809658   6.123812
    12  C    6.946920   5.495322   5.118485   6.400417   7.411554
    13  C    7.176886   5.776401   5.059098   6.175507   7.379792
    14  N    6.370634   5.069102   4.105138   5.059082   6.365502
    15  C    7.397808   6.202318   5.069127   5.776423   7.180650
    16  C    8.672302   7.397780   6.370636   7.176881   8.556184
    17  C    8.556176   7.180614   6.365504   7.379783   8.660316
    18  C    7.423487   6.419331   5.119876   5.499691   6.950573
    19  C    6.462168   5.655464   4.272567   4.366736   5.809611
    20  C    7.023953   6.473726   5.074994   4.776856   6.123761
    21  C    6.132229   5.831545   4.489287   3.861848   5.076294
    22  C    4.778346   4.385680   3.036021   2.513613   3.850555
    23  N    5.087039   4.294483   2.902737   3.039670   4.491400
    24  Fe   4.355114   3.124715   2.087109   3.111766   4.349425
    25  O    4.790777   3.698391   2.873239   3.688411   4.786477
    26  C    3.641076   3.598246   2.477705   1.419458   2.546067
    27  H    7.178763   5.847093   6.168639   7.544799   8.101015
    28  H    5.316776   4.295395   5.180416   6.417340   6.508484
    29  H    7.910167   6.457467   6.173892   7.473839   8.446564
    30  H    9.640073   8.404202   7.318446   8.028458   9.439162
    31  H    6.524841   6.446094   5.184730   4.318649   5.327092
    32  H    1.084951   2.260542   3.372511   3.334421   2.215027
    33  H    9.433971   8.025473   7.309739   8.382353   9.624137
    34  H    8.101692   7.555654   6.155863   5.847236   7.172259
    35  H    2.214745   3.336121   3.361343   2.260073   1.084840
    36  H    8.453932   7.490362   6.171148   6.456441   7.907367
    37  H    4.050169   4.348008   3.417475   2.140056   2.743439
    38  H    2.739590   2.120933   3.422413   4.330392   4.042791
                    6          7          8          9         10
     6  C    0.000000
     7  C    1.419472   0.000000
     8  N    2.477714   1.378499   0.000000
     9  C    3.598254   2.221694   1.401637   0.000000
    10  C    3.641086   2.272894   2.333911   1.453463   0.000000
    11  C    2.546094   1.452183   2.325723   2.274831   1.377219
    12  C    4.889955   3.568425   2.474828   1.392212   2.531634
    13  C    5.499685   4.366767   3.039699   2.513646   3.861901
    14  N    5.119874   4.272628   2.902812   3.036093   4.489372
    15  C    6.419341   5.655528   4.294560   4.385728   5.831605
    16  C    7.423473   6.462200   5.087080   4.778371   6.132267
    17  C    6.950550   5.809621   4.491413   3.850560   5.076316
    18  C    6.915455   6.400459   5.118517   5.495363   6.946955
    19  C    6.400395   6.175529   5.059108   5.776412   7.176890
    20  C    7.411522   7.379803   6.365514   7.180626   8.556180
    21  C    6.946897   7.176904   6.370650   7.397794   8.672308
    22  C    5.495315   5.776435   5.069129   6.202318   7.397799
    23  N    5.118437   5.059095   4.105136   5.069097   6.370623
    24  Fe   3.479018   3.111782   2.087104   3.124793   4.355204
    25  O    4.003059   3.689513   2.874451   3.700368   4.792911
    26  C    4.889959   5.499725   5.119900   6.419350   7.423499
    27  H    4.664654   3.334419   3.372513   2.260543   1.084960
    28  H    2.905202   2.260071   3.361356   3.336127   2.214743
    29  H    5.718678   4.330406   3.422405   2.120942   2.739632
    30  H    8.485284   7.544794   6.168624   5.847092   7.178757
    31  H    7.658895   8.028469   7.318449   8.404204   9.640065
    32  H    2.901351   4.318692   5.184777   6.446137   6.524880
    33  H    7.657533   6.417285   5.180351   4.295344   5.316728
    34  H    8.472020   8.382385   7.309761   8.025499   9.433990
    35  H    4.645138   5.847286   6.155917   7.555702   8.101729
    36  H    8.005777   7.473880   6.173922   6.457505   7.910199
    37  H    5.707734   6.456493   6.171186   7.490395   8.453961
    38  H    1.090376   2.140053   3.417477   4.348013   4.050180
                   11         12         13         14         15
    11  C    0.000000
    12  C    3.619845   0.000000
    13  C    4.776906   1.419475   0.000000
    14  N    5.075077   2.477752   1.378512   0.000000
    15  C    6.473796   3.598257   2.221681   1.401636   0.000000
    16  C    7.023991   3.641079   2.272897   2.333924   1.453449
    17  C    6.123779   2.546062   1.452179   2.325738   2.274819
    18  C    7.411592   4.889969   3.568416   2.474821   1.392216
    19  C    7.379806   5.499663   4.366710   3.039634   2.513610
    20  C    8.660328   6.950531   5.809570   4.491352   3.850531
    21  C    8.556198   7.423455   6.462144   5.087014   4.778342
    22  C    7.180652   6.419310   5.655456   4.294477   4.385690
    23  N    6.365504   5.119834   4.272546   2.902718   3.036045
    24  Fe   4.349491   3.479115   3.111856   2.087135   3.124892
    25  O    4.788191   4.005234   3.691321   2.875406   3.701048
    26  C    6.950599   6.915441   6.400400   5.118448   5.495335
    27  H    2.215029   2.901368   4.318708   5.184823   6.446154
    28  H    1.084841   4.645149   5.847280   6.155939   7.555717
    29  H    4.042824   1.090375   2.140049   3.417501   4.347987
    30  H    8.101006   4.664641   3.334422   3.372530   2.260541
    31  H    9.439164   8.485255   7.544727   6.168547   5.847053
    32  H    5.327140   7.658922   8.028456   7.318440   8.404222
    33  H    6.508429   2.905152   2.260069   3.361372   3.336115
    34  H    9.624162   7.657529   6.417253   5.180310   4.295327
    35  H    7.172303   8.472047   8.382370   7.309745   8.025521
    36  H    8.446600   5.718690   4.330404   3.422406   2.120952
    37  H    7.907413   8.005773   7.473826   6.173857   6.457473
    38  H    2.743463   5.707730   6.456454   6.171159   7.490381
                   16         17         18         19         20
    16  C    0.000000
    17  C    1.377228   0.000000
    18  C    2.531616   3.619836   0.000000
    19  C    3.861849   4.776853   1.419453   0.000000
    20  C    5.076272   6.123737   2.546035   1.452179   0.000000
    21  C    6.132221   7.023942   3.641059   2.272904   1.377224
    22  C    5.831548   6.473729   3.598240   2.221681   2.274810
    23  N    4.489304   5.074999   2.477735   1.378508   2.325734
    24  Fe   4.355331   4.349609   3.479197   3.111857   4.349550
    25  O    4.794237   4.790070   4.005038   3.690216   4.788346
    26  C    6.946906   7.411534   4.889957   3.568414   3.619816
    27  H    6.524880   5.327116   7.658954   8.028458   9.439150
    28  H    8.101721   7.172269   8.472081   8.382381   9.624156
    29  H    4.050140   2.743402   5.707715   6.456409   7.907321
    30  H    1.084962   2.215037   2.901358   4.318671   5.327088
    31  H    7.178702   8.100947   4.664610   3.334419   2.215030
    32  H    9.640065   9.439146   8.485292   7.544755   8.100964
    33  H    2.214752   1.084841   4.645139   5.847227   7.172228
    34  H    5.316698   6.508405   2.905128   2.260072   1.084847
    35  H    9.433991   9.624148   7.657570   6.417299   6.508438
    36  H    2.739622   4.042824   1.090376   2.140046   2.743392
    37  H    7.910147   8.446544   5.718667   4.330395   4.042789
    38  H    8.453932   7.907362   8.005780   7.473813   8.446524
                   21         22         23         24         25
    21  C    0.000000
    22  C    1.453452   0.000000
    23  N    2.333937   1.401647   0.000000
    24  Fe   4.355252   3.124816   2.087133   0.000000
    25  O    4.792134   3.699082   2.874172   1.633929   0.000000
    26  C    2.531599   1.392208   2.474836   3.479093   4.002882
    27  H    9.640071   8.404215   7.318427   5.332184   5.700717
    28  H    9.434002   8.025521   7.309746   5.322985   5.692597
    29  H    8.453897   7.490339   6.171105   4.564951   4.980276
    30  H    6.524848   6.446112   5.184771   5.332328   5.701955
    31  H    1.084951   2.260533   3.372531   5.332218   5.699633
    32  H    7.178716   5.847061   6.168574   5.332071   5.698360
    33  H    8.101671   7.555647   6.155858   5.323106   5.694713
    34  H    2.214747   3.336111   3.361373   5.323052   5.693042
    35  H    5.316730   4.295362   5.180363   5.322917   5.690934
    36  H    4.050132   4.347983   3.417496   4.565036   4.980072
    37  H    2.739588   2.120946   3.422421   4.564917   4.977686
    38  H    7.910128   6.457445   6.173838   4.564832   4.977861
                   26         27         28         29         30
    26  C    0.000000
    27  H    8.485308   0.000000
    28  H    7.657594   2.707422   0.000000
    29  H    8.005762   2.677688   4.954343   0.000000
    30  H    7.658917   7.516862   9.176422   4.958428   0.000000
    31  H    2.901327  10.630421  10.269997   9.523866   7.516822
    32  H    4.664631   7.516873   5.347605   8.560879  10.630427
    33  H    8.472020   5.347554   7.503306   2.670938   2.707428
    34  H    4.645121  10.269988  10.611306   8.551378   5.347538
    35  H    2.905169   9.176435   7.503362   9.515154  10.269999
    36  H    5.707709   8.560907   9.515187   6.431914   2.677684
    37  H    1.090383   9.523939   8.551471   9.096095   8.560863
    38  H    5.718660   4.958481   2.671026   6.431936   9.523912
                   31         32         33         34         35
    31  H    0.000000
    32  H    7.516823   0.000000
    33  H    9.176362  10.269970   0.000000
    34  H    2.707420   9.176390   7.503285   0.000000
    35  H    5.347557   2.707416  10.611285   7.503323   0.000000
    36  H    4.958410   9.523906   4.954341   2.670923   8.551424
    37  H    2.677632   4.958454   9.515128   4.954303   2.670986
    38  H    8.560832   2.677642   8.551409   9.515120   4.954303
                   36         37         38
    36  H    0.000000
    37  H    6.431893   0.000000
    38  H    9.096103   6.431911   0.000000
 Symmetry turned off by external request.
 This structure is nearly, but not quite of a higher symmetry.
 Consider Symm=Loose if the higher symmetry is desired.
 Stoichiometry    C20H12FeN4O(1+,6)
 Framework group  C1[X(C20H12FeN4O)]
 Deg. of freedom   108
 Full point group                 C1      NOp   1
 Rotational constants (GHZ):      0.2542455      0.2542447      0.1315266
 Leave Link  202 at Tue Jul 31 04:14:45 2007, MaxMem=    6291456 cpu:       0.3
 (Enter /software/gaussian/g03_B.4_7.4.2/g03/l301.exe)
 Standard basis: LANL2DZ (5D, 7F)
 AO basis set in the form of general basis input:
  1 0
 S   7 1.00       0.000000000000
      0.4233000000D+04  0.1219999687D-02
      0.6349000000D+03  0.9341997607D-02
      0.1461000000D+03  0.4545198836D-01
      0.4250000000D+02  0.1546569604D+00
      0.1419000000D+02  0.3588659081D+00
      0.5148000000D+01  0.4386318876D+00
      0.1967000000D+01  0.1459179626D+00
 S   2 1.00       0.000000000000
      0.5148000000D+01 -0.1683669561D+00
      0.4962000000D+00  0.1060090723D+01
 S   1 1.00       0.000000000000
      0.1533000000D+00  0.1000000000D+01
 P   4 1.00       0.000000000000
      0.1816000000D+02  0.1853899981D-01
      0.3986000000D+01  0.1154359988D+00
      0.1143000000D+01  0.3861879960D+00
      0.3594000000D+00  0.6401139934D+00
 P   1 1.00       0.000000000000
      0.1146000000D+00  0.1000000000D+01
 ****
  2 0
 S   7 1.00       0.000000000000
      0.4233000000D+04  0.1219999687D-02
      0.6349000000D+03  0.9341997607D-02
      0.1461000000D+03  0.4545198836D-01
      0.4250000000D+02  0.1546569604D+00
      0.1419000000D+02  0.3588659081D+00
      0.5148000000D+01  0.4386318876D+00
      0.1967000000D+01  0.1459179626D+00
 S   2 1.00       0.000000000000
      0.5148000000D+01 -0.1683669561D+00
      0.4962000000D+00  0.1060090723D+01
 S   1 1.00       0.000000000000
      0.1533000000D+00  0.1000000000D+01
 P   4 1.00       0.000000000000
      0.1816000000D+02  0.1853899981D-01
      0.3986000000D+01  0.1154359988D+00
      0.1143000000D+01  0.3861879960D+00
      0.3594000000D+00  0.6401139934D+00
 P   1 1.00       0.000000000000
      0.1146000000D+00  0.1000000000D+01
 ****
  3 0
 S   7 1.00       0.000000000000
      0.5909000000D+04  0.1189999548D-02
      0.8875000000D+03  0.9098996542D-02
      0.2047000000D+03  0.4414498323D-01
      0.5984000000D+02  0.1504639428D+00
      0.2000000000D+02  0.3567408644D+00
      0.7193000000D+01  0.4465328303D+00
      0.2686000000D+01  0.1456029447D+00
 S   2 1.00       0.000000000000
      0.7193000000D+01 -0.1604050334D+00
      0.7000000000D+00  0.1058215221D+01
 S   1 1.00       0.000000000000
      0.2133000000D+00  0.1000000000D+01
 P   4 1.00       0.000000000000
      0.2679000000D+02  0.1825399824D-01
      0.5956000000D+01  0.1164609888D+00
      0.1707000000D+01  0.3901779624D+00
      0.5314000000D+00  0.6371019387D+00
 P   1 1.00       0.000000000000
      0.1654000000D+00  0.1000000000D+01
 ****
  4 0
 S   7 1.00       0.000000000000
      0.4233000000D+04  0.1219999687D-02
      0.6349000000D+03  0.9341997607D-02
      0.1461000000D+03  0.4545198836D-01
      0.4250000000D+02  0.1546569604D+00
      0.1419000000D+02  0.3588659081D+00
      0.5148000000D+01  0.4386318876D+00
      0.1967000000D+01  0.1459179626D+00
 S   2 1.00       0.000000000000
      0.5148000000D+01 -0.1683669561D+00
      0.4962000000D+00  0.1060090723D+01
 S   1 1.00       0.000000000000
      0.1533000000D+00  0.1000000000D+01
 P   4 1.00       0.000000000000
      0.1816000000D+02  0.1853899981D-01
      0.3986000000D+01  0.1154359988D+00
      0.1143000000D+01  0.3861879960D+00
      0.3594000000D+00  0.6401139934D+00
 P   1 1.00       0.000000000000
      0.1146000000D+00  0.1000000000D+01
 ****
  5 0
 S   7 1.00       0.000000000000
      0.4233000000D+04  0.1219999687D-02
      0.6349000000D+03  0.9341997607D-02
      0.1461000000D+03  0.4545198836D-01
      0.4250000000D+02  0.1546569604D+00
      0.1419000000D+02  0.3588659081D+00
      0.5148000000D+01  0.4386318876D+00
      0.1967000000D+01  0.1459179626D+00
 S   2 1.00       0.000000000000
      0.5148000000D+01 -0.1683669561D+00
      0.4962000000D+00  0.1060090723D+01
 S   1 1.00       0.000000000000
      0.1533000000D+00  0.1000000000D+01
 P   4 1.00       0.000000000000
      0.1816000000D+02  0.1853899981D-01
      0.3986000000D+01  0.1154359988D+00
      0.1143000000D+01  0.3861879960D+00
      0.3594000000D+00  0.6401139934D+00
 P   1 1.00       0.000000000000
      0.1146000000D+00  0.1000000000D+01
 ****
  6 0
 S   7 1.00       0.000000000000
      0.4233000000D+04  0.1219999687D-02
      0.6349000000D+03  0.9341997607D-02
      0.1461000000D+03  0.4545198836D-01
      0.4250000000D+02  0.1546569604D+00
      0.1419000000D+02  0.3588659081D+00
      0.5148000000D+01  0.4386318876D+00
      0.1967000000D+01  0.1459179626D+00
 S   2 1.00       0.000000000000
      0.5148000000D+01 -0.1683669561D+00
      0.4962000000D+00  0.1060090723D+01
 S   1 1.00       0.000000000000
      0.1533000000D+00  0.1000000000D+01
 P   4 1.00       0.000000000000
      0.1816000000D+02  0.1853899981D-01
      0.3986000000D+01  0.1154359988D+00
      0.1143000000D+01  0.3861879960D+00
      0.3594000000D+00  0.6401139934D+00
 P   1 1.00       0.000000000000
      0.1146000000D+00  0.1000000000D+01
 ****
  7 0
 S   7 1.00       0.000000000000
      0.4233000000D+04  0.1219999687D-02
      0.6349000000D+03  0.9341997607D-02
      0.1461000000D+03  0.4545198836D-01
      0.4250000000D+02  0.1546569604D+00
      0.1419000000D+02  0.3588659081D+00
      0.5148000000D+01  0.4386318876D+00
      0.1967000000D+01  0.1459179626D+00
 S   2 1.00       0.000000000000
      0.5148000000D+01 -0.1683669561D+00
      0.4962000000D+00  0.1060090723D+01
 S   1 1.00       0.000000000000
      0.1533000000D+00  0.1000000000D+01
 P   4 1.00       0.000000000000
      0.1816000000D+02  0.1853899981D-01
      0.3986000000D+01  0.1154359988D+00
      0.1143000000D+01  0.3861879960D+00
      0.3594000000D+00  0.6401139934D+00
 P   1 1.00       0.000000000000
      0.1146000000D+00  0.1000000000D+01
 ****
  8 0
 S   7 1.00       0.000000000000
      0.5909000000D+04  0.1189999548D-02
      0.8875000000D+03  0.9098996542D-02
      0.2047000000D+03  0.4414498323D-01
      0.5984000000D+02  0.1504639428D+00
      0.2000000000D+02  0.3567408644D+00
      0.7193000000D+01  0.4465328303D+00
      0.2686000000D+01  0.1456029447D+00
 S   2 1.00       0.000000000000
      0.7193000000D+01 -0.1604050334D+00
      0.7000000000D+00  0.1058215221D+01
 S   1 1.00       0.000000000000
      0.2133000000D+00  0.1000000000D+01
 P   4 1.00       0.000000000000
      0.2679000000D+02  0.1825399824D-01
      0.5956000000D+01  0.1164609888D+00
      0.1707000000D+01  0.3901779624D+00
      0.5314000000D+00  0.6371019387D+00
 P   1 1.00       0.000000000000
      0.1654000000D+00  0.1000000000D+01
 ****
  9 0
 S   7 1.00       0.000000000000
      0.4233000000D+04  0.1219999687D-02
      0.6349000000D+03  0.9341997607D-02
      0.1461000000D+03  0.4545198836D-01
      0.4250000000D+02  0.1546569604D+00
      0.1419000000D+02  0.3588659081D+00
      0.5148000000D+01  0.4386318876D+00
      0.1967000000D+01  0.1459179626D+00
 S   2 1.00       0.000000000000
      0.5148000000D+01 -0.1683669561D+00
      0.4962000000D+00  0.1060090723D+01
 S   1 1.00       0.000000000000
      0.1533000000D+00  0.1000000000D+01
 P   4 1.00       0.000000000000
      0.1816000000D+02  0.1853899981D-01
      0.3986000000D+01  0.1154359988D+00
      0.1143000000D+01  0.3861879960D+00
      0.3594000000D+00  0.6401139934D+00
 P   1 1.00       0.000000000000
      0.1146000000D+00  0.1000000000D+01
 ****
 10 0
 S   7 1.00       0.000000000000
      0.4233000000D+04  0.1219999687D-02
      0.6349000000D+03  0.9341997607D-02
      0.1461000000D+03  0.4545198836D-01
      0.4250000000D+02  0.1546569604D+00
      0.1419000000D+02  0.3588659081D+00
      0.5148000000D+01  0.4386318876D+00
      0.1967000000D+01  0.1459179626D+00
 S   2 1.00       0.000000000000
      0.5148000000D+01 -0.1683669561D+00
      0.4962000000D+00  0.1060090723D+01
 S   1 1.00       0.000000000000
      0.1533000000D+00  0.1000000000D+01
 P   4 1.00       0.000000000000
      0.1816000000D+02  0.1853899981D-01
      0.3986000000D+01  0.1154359988D+00
      0.1143000000D+01  0.3861879960D+00
      0.3594000000D+00  0.6401139934D+00
 P   1 1.00       0.000000000000
      0.1146000000D+00  0.1000000000D+01
 ****
 11 0
 S   7 1.00       0.000000000000
      0.4233000000D+04  0.1219999687D-02
      0.6349000000D+03  0.9341997607D-02
      0.1461000000D+03  0.4545198836D-01
      0.4250000000D+02  0.1546569604D+00
      0.1419000000D+02  0.3588659081D+00
      0.5148000000D+01  0.4386318876D+00
      0.1967000000D+01  0.1459179626D+00
 S   2 1.00       0.000000000000
      0.5148000000D+01 -0.1683669561D+00
      0.4962000000D+00  0.1060090723D+01
 S   1 1.00       0.000000000000
      0.1533000000D+00  0.1000000000D+01
 P   4 1.00       0.000000000000
      0.1816000000D+02  0.1853899981D-01
      0.3986000000D+01  0.1154359988D+00
      0.1143000000D+01  0.3861879960D+00
      0.3594000000D+00  0.6401139934D+00
 P   1 1.00       0.000000000000
      0.1146000000D+00  0.1000000000D+01
 ****
 12 0
 S   7 1.00       0.000000000000
      0.4233000000D+04  0.1219999687D-02
      0.6349000000D+03  0.9341997607D-02
      0.1461000000D+03  0.4545198836D-01
      0.4250000000D+02  0.1546569604D+00
      0.1419000000D+02  0.3588659081D+00
      0.5148000000D+01  0.4386318876D+00
      0.1967000000D+01  0.1459179626D+00
 S   2 1.00       0.000000000000
      0.5148000000D+01 -0.1683669561D+00
      0.4962000000D+00  0.1060090723D+01
 S   1 1.00       0.000000000000
      0.1533000000D+00  0.1000000000D+01
 P   4 1.00       0.000000000000
      0.1816000000D+02  0.1853899981D-01
      0.3986000000D+01  0.1154359988D+00
      0.1143000000D+01  0.3861879960D+00
      0.3594000000D+00  0.6401139934D+00
 P   1 1.00       0.000000000000
      0.1146000000D+00  0.1000000000D+01
 ****
 13 0
 S   7 1.00       0.000000000000
      0.4233000000D+04  0.1219999687D-02
      0.6349000000D+03  0.9341997607D-02
      0.1461000000D+03  0.4545198836D-01
      0.4250000000D+02  0.1546569604D+00
      0.1419000000D+02  0.3588659081D+00
      0.5148000000D+01  0.4386318876D+00
      0.1967000000D+01  0.1459179626D+00
 S   2 1.00       0.000000000000
      0.5148000000D+01 -0.1683669561D+00
      0.4962000000D+00  0.1060090723D+01
 S   1 1.00       0.000000000000
      0.1533000000D+00  0.1000000000D+01
 P   4 1.00       0.000000000000
      0.1816000000D+02  0.1853899981D-01
      0.3986000000D+01  0.1154359988D+00
      0.1143000000D+01  0.3861879960D+00
      0.3594000000D+00  0.6401139934D+00
 P   1 1.00       0.000000000000
      0.1146000000D+00  0.1000000000D+01
 ****
 14 0
 S   7 1.00       0.000000000000
      0.5909000000D+04  0.1189999548D-02
      0.8875000000D+03  0.9098996542D-02
      0.2047000000D+03  0.4414498323D-01
      0.5984000000D+02  0.1504639428D+00
      0.2000000000D+02  0.3567408644D+00
      0.7193000000D+01  0.4465328303D+00
      0.2686000000D+01  0.1456029447D+00
 S   2 1.00       0.000000000000
      0.7193000000D+01 -0.1604050334D+00
      0.7000000000D+00  0.1058215221D+01
 S   1 1.00       0.000000000000
      0.2133000000D+00  0.1000000000D+01
 P   4 1.00       0.000000000000
      0.2679000000D+02  0.1825399824D-01
      0.5956000000D+01  0.1164609888D+00
      0.1707000000D+01  0.3901779624D+00
      0.5314000000D+00  0.6371019387D+00
 P   1 1.00       0.000000000000
      0.1654000000D+00  0.1000000000D+01
 ****
 15 0
 S   7 1.00       0.000000000000
      0.4233000000D+04  0.1219999687D-02
      0.6349000000D+03  0.9341997607D-02
      0.1461000000D+03  0.4545198836D-01
      0.4250000000D+02  0.1546569604D+00
      0.1419000000D+02  0.3588659081D+00
      0.5148000000D+01  0.4386318876D+00
      0.1967000000D+01  0.1459179626D+00
 S   2 1.00       0.000000000000
      0.5148000000D+01 -0.1683669561D+00
      0.4962000000D+00  0.1060090723D+01
 S   1 1.00       0.000000000000
      0.1533000000D+00  0.1000000000D+01
 P   4 1.00       0.000000000000
      0.1816000000D+02  0.1853899981D-01
      0.3986000000D+01  0.1154359988D+00
      0.1143000000D+01  0.3861879960D+00
      0.3594000000D+00  0.6401139934D+00
 P   1 1.00       0.000000000000
      0.1146000000D+00  0.1000000000D+01
 ****
 16 0
 S   7 1.00       0.000000000000
      0.4233000000D+04  0.1219999687D-02
      0.6349000000D+03  0.9341997607D-02
      0.1461000000D+03  0.4545198836D-01
      0.4250000000D+02  0.1546569604D+00
      0.1419000000D+02  0.3588659081D+00
      0.5148000000D+01  0.4386318876D+00
      0.1967000000D+01  0.1459179626D+00
 S   2 1.00       0.000000000000
      0.5148000000D+01 -0.1683669561D+00
      0.4962000000D+00  0.1060090723D+01
 S   1 1.00       0.000000000000
      0.1533000000D+00  0.1000000000D+01
 P   4 1.00       0.000000000000
      0.1816000000D+02  0.1853899981D-01
      0.3986000000D+01  0.1154359988D+00
      0.1143000000D+01  0.3861879960D+00
      0.3594000000D+00  0.6401139934D+00
 P   1 1.00       0.000000000000
      0.1146000000D+00  0.1000000000D+01
 ****
 17 0
 S   7 1.00       0.000000000000
      0.4233000000D+04  0.1219999687D-02
      0.6349000000D+03  0.9341997607D-02
      0.1461000000D+03  0.4545198836D-01
      0.4250000000D+02  0.1546569604D+00
      0.1419000000D+02  0.3588659081D+00
      0.5148000000D+01  0.4386318876D+00
      0.1967000000D+01  0.1459179626D+00
 S   2 1.00       0.000000000000
      0.5148000000D+01 -0.1683669561D+00
      0.4962000000D+00  0.1060090723D+01
 S   1 1.00       0.000000000000
      0.1533000000D+00  0.1000000000D+01
 P   4 1.00       0.000000000000
      0.1816000000D+02  0.1853899981D-01
      0.3986000000D+01  0.1154359988D+00
      0.1143000000D+01  0.3861879960D+00
      0.3594000000D+00  0.6401139934D+00
 P   1 1.00       0.000000000000
      0.1146000000D+00  0.1000000000D+01
 ****
 18 0
 S   7 1.00       0.000000000000
      0.4233000000D+04  0.1219999687D-02
      0.6349000000D+03  0.9341997607D-02
      0.1461000000D+03  0.4545198836D-01
      0.4250000000D+02  0.1546569604D+00
      0.1419000000D+02  0.3588659081D+00
      0.5148000000D+01  0.4386318876D+00
      0.1967000000D+01  0.1459179626D+00
 S   2 1.00       0.000000000000
      0.5148000000D+01 -0.1683669561D+00
      0.4962000000D+00  0.1060090723D+01
 S   1 1.00       0.000000000000
      0.1533000000D+00  0.1000000000D+01
 P   4 1.00       0.000000000000
      0.1816000000D+02  0.1853899981D-01
      0.3986000000D+01  0.1154359988D+00
      0.1143000000D+01  0.3861879960D+00
      0.3594000000D+00  0.6401139934D+00
 P   1 1.00       0.000000000000
      0.1146000000D+00  0.1000000000D+01
 ****
 19 0
 S   7 1.00       0.000000000000
      0.4233000000D+04  0.1219999687D-02
      0.6349000000D+03  0.9341997607D-02
      0.1461000000D+03  0.4545198836D-01
      0.4250000000D+02  0.1546569604D+00
      0.1419000000D+02  0.3588659081D+00
      0.5148000000D+01  0.4386318876D+00
      0.1967000000D+01  0.1459179626D+00
 S   2 1.00       0.000000000000
      0.5148000000D+01 -0.1683669561D+00
      0.4962000000D+00  0.1060090723D+01
 S   1 1.00       0.000000000000
      0.1533000000D+00  0.1000000000D+01
 P   4 1.00       0.000000000000
      0.1816000000D+02  0.1853899981D-01
      0.3986000000D+01  0.1154359988D+00
      0.1143000000D+01  0.3861879960D+00
      0.3594000000D+00  0.6401139934D+00
 P   1 1.00       0.000000000000
      0.1146000000D+00  0.1000000000D+01
 ****
 20 0
 S   7 1.00       0.000000000000
      0.4233000000D+04  0.1219999687D-02
      0.6349000000D+03  0.9341997607D-02
      0.1461000000D+03  0.4545198836D-01
      0.4250000000D+02  0.1546569604D+00
      0.1419000000D+02  0.3588659081D+00
      0.5148000000D+01  0.4386318876D+00
      0.1967000000D+01  0.1459179626D+00
 S   2 1.00       0.000000000000
      0.5148000000D+01 -0.1683669561D+00
      0.4962000000D+00  0.1060090723D+01
 S   1 1.00       0.000000000000
      0.1533000000D+00  0.1000000000D+01
 P   4 1.00       0.000000000000
      0.1816000000D+02  0.1853899981D-01
      0.3986000000D+01  0.1154359988D+00
      0.1143000000D+01  0.3861879960D+00
      0.3594000000D+00  0.6401139934D+00
 P   1 1.00       0.000000000000
      0.1146000000D+00  0.1000000000D+01
 ****
 21 0
 S   7 1.00       0.000000000000
      0.4233000000D+04  0.1219999687D-02
      0.6349000000D+03  0.9341997607D-02
      0.1461000000D+03  0.4545198836D-01
      0.4250000000D+02  0.1546569604D+00
      0.1419000000D+02  0.3588659081D+00
      0.5148000000D+01  0.4386318876D+00
      0.1967000000D+01  0.1459179626D+00
 S   2 1.00       0.000000000000
      0.5148000000D+01 -0.1683669561D+00
      0.4962000000D+00  0.1060090723D+01
 S   1 1.00       0.000000000000
      0.1533000000D+00  0.1000000000D+01
 P   4 1.00       0.000000000000
      0.1816000000D+02  0.1853899981D-01
      0.3986000000D+01  0.1154359988D+00
      0.1143000000D+01  0.3861879960D+00
      0.3594000000D+00  0.6401139934D+00
 P   1 1.00       0.000000000000
      0.1146000000D+00  0.1000000000D+01
 ****
 22 0
 S   7 1.00       0.000000000000
      0.4233000000D+04  0.1219999687D-02
      0.6349000000D+03  0.9341997607D-02
      0.1461000000D+03  0.4545198836D-01
      0.4250000000D+02  0.1546569604D+00
      0.1419000000D+02  0.3588659081D+00
      0.5148000000D+01  0.4386318876D+00
      0.1967000000D+01  0.1459179626D+00
 S   2 1.00       0.000000000000
      0.5148000000D+01 -0.1683669561D+00
      0.4962000000D+00  0.1060090723D+01
 S   1 1.00       0.000000000000
      0.1533000000D+00  0.1000000000D+01
 P   4 1.00       0.000000000000
      0.1816000000D+02  0.1853899981D-01
      0.3986000000D+01  0.1154359988D+00
      0.1143000000D+01  0.3861879960D+00
      0.3594000000D+00  0.6401139934D+00
 P   1 1.00       0.000000000000
      0.1146000000D+00  0.1000000000D+01
 ****
 23 0
 S   7 1.00       0.000000000000
      0.5909000000D+04  0.1189999548D-02
      0.8875000000D+03  0.9098996542D-02
      0.2047000000D+03  0.4414498323D-01
      0.5984000000D+02  0.1504639428D+00
      0.2000000000D+02  0.3567408644D+00
      0.7193000000D+01  0.4465328303D+00
      0.2686000000D+01  0.1456029447D+00
 S   2 1.00       0.000000000000
      0.7193000000D+01 -0.1604050334D+00
      0.7000000000D+00  0.1058215221D+01
 S   1 1.00       0.000000000000
      0.2133000000D+00  0.1000000000D+01
 P   4 1.00       0.000000000000
      0.2679000000D+02  0.1825399824D-01
      0.5956000000D+01  0.1164609888D+00
      0.1707000000D+01  0.3901779624D+00
      0.5314000000D+00  0.6371019387D+00
 P   1 1.00       0.000000000000
      0.1654000000D+00  0.1000000000D+01
 ****
 24 0
 S   3 1.00       0.000000000000
      0.6422000000D+01 -0.3927882259D+00
      0.1826000000D+01  0.7712643508D+00
      0.7135000000D+00  0.4920228324D+00
 S   4 1.00       0.000000000000
      0.6422000000D+01  0.1786876801D+00
      0.1826000000D+01 -0.4194031534D+00
      0.7135000000D+00 -0.4568184492D+00
      0.1021000000D+00  0.1103504877D+01
 S   1 1.00       0.000000000000
      0.3630000000D-01  0.1000000000D+01
 P   3 1.00       0.000000000000
      0.1948000000D+02 -0.4702820002D-01
      0.2389000000D+01  0.6248841003D+00
      0.7795000000D+00  0.4722542002D+00
 P   1 1.00       0.000000000000
      0.7400000000D-01  0.1000000000D+01
 P   1 1.00       0.000000000000
      0.2200000000D-01  0.1000000000D+01
 D   4 1.00       0.000000000000
      0.3708000000D+02  0.3290000268D-01
      0.1010000000D+02  0.1787418146D+00
      0.3220000000D+01  0.4487657366D+00
      0.9628000000D+00  0.5876361479D+00
 D   1 1.00       0.000000000000
      0.2262000000D+00  0.1000000000D+01
 ****
 25 0
 S   7 1.00       0.000000000000
      0.7817000000D+04  0.1176000331D-02
      0.1176000000D+04  0.8968002523D-02
      0.2732000000D+03  0.4286801206D-01
      0.8117000000D+02  0.1439300405D+00
      0.2718000000D+02  0.3556301000D+00
      0.9532000000D+01  0.4612481297D+00
      0.3414000000D+01  0.1402060394D+00
 S   2 1.00       0.000000000000
      0.9532000000D+01 -0.1541530739D+00
      0.9398000000D+00  0.1056914507D+01
 S   1 1.00       0.000000000000
      0.2846000000D+00  0.1000000000D+01
 P   4 1.00       0.000000000000
      0.3518000000D+02  0.1958000050D-01
      0.7904000000D+01  0.1242000032D+00
      0.2305000000D+01  0.3947140101D+00
      0.7171000000D+00  0.6273760161D+00
 P   1 1.00       0.000000000000
      0.2137000000D+00  0.1000000000D+01
 ****
 26 0
 S   7 1.00       0.000000000000
      0.4233000000D+04  0.1219999687D-02
      0.6349000000D+03  0.9341997607D-02
      0.1461000000D+03  0.4545198836D-01
      0.4250000000D+02  0.1546569604D+00
      0.1419000000D+02  0.3588659081D+00
      0.5148000000D+01  0.4386318876D+00
      0.1967000000D+01  0.1459179626D+00
 S   2 1.00       0.000000000000
      0.5148000000D+01 -0.1683669561D+00
      0.4962000000D+00  0.1060090723D+01
 S   1 1.00       0.000000000000
      0.1533000000D+00  0.1000000000D+01
 P   4 1.00       0.000000000000
      0.1816000000D+02  0.1853899981D-01
      0.3986000000D+01  0.1154359988D+00
      0.1143000000D+01  0.3861879960D+00
      0.3594000000D+00  0.6401139934D+00
 P   1 1.00       0.000000000000
      0.1146000000D+00  0.1000000000D+01
 ****
 27 0
 S   3 1.00       0.000000000000
      0.1924060000D+02  0.3282807697D-01
      0.2899200000D+01  0.2312085421D+00
      0.6534000000D+00  0.8172399161D+00
 S   1 1.00       0.000000000000
      0.1776000000D+00  0.1000000000D+01
 ****
 28 0
 S   3 1.00       0.000000000000
      0.1924060000D+02  0.3282807697D-01
      0.2899200000D+01  0.2312085421D+00
      0.6534000000D+00  0.8172399161D+00
 S   1 1.00       0.000000000000
      0.1776000000D+00  0.1000000000D+01
 ****
 29 0
 S   3 1.00       0.000000000000
      0.1924060000D+02  0.3282807697D-01
      0.2899200000D+01  0.2312085421D+00
      0.6534000000D+00  0.8172399161D+00
 S   1 1.00       0.000000000000
      0.1776000000D+00  0.1000000000D+01
 ****
 30 0
 S   3 1.00       0.000000000000
      0.1924060000D+02  0.3282807697D-01
      0.2899200000D+01  0.2312085421D+00
      0.6534000000D+00  0.8172399161D+00
 S   1 1.00       0.000000000000
      0.1776000000D+00  0.1000000000D+01
 ****
 31 0
 S   3 1.00       0.000000000000
      0.1924060000D+02  0.3282807697D-01
      0.2899200000D+01  0.2312085421D+00
      0.6534000000D+00  0.8172399161D+00
 S   1 1.00       0.000000000000
      0.1776000000D+00  0.1000000000D+01
 ****
 32 0
 S   3 1.00       0.000000000000
      0.1924060000D+02  0.3282807697D-01
      0.2899200000D+01  0.2312085421D+00
      0.6534000000D+00  0.8172399161D+00
 S   1 1.00       0.000000000000
      0.1776000000D+00  0.1000000000D+01
 ****
 33 0
 S   3 1.00       0.000000000000
      0.1924060000D+02  0.3282807697D-01
      0.2899200000D+01  0.2312085421D+00
      0.6534000000D+00  0.8172399161D+00
 S   1 1.00       0.000000000000
      0.1776000000D+00  0.1000000000D+01
 ****
 34 0
 S   3 1.00       0.000000000000
      0.1924060000D+02  0.3282807697D-01
      0.2899200000D+01  0.2312085421D+00
      0.6534000000D+00  0.8172399161D+00
 S   1 1.00       0.000000000000
      0.1776000000D+00  0.1000000000D+01
 ****
 35 0
 S   3 1.00       0.000000000000
      0.1924060000D+02  0.3282807697D-01
      0.2899200000D+01  0.2312085421D+00
      0.6534000000D+00  0.8172399161D+00
 S   1 1.00       0.000000000000
      0.1776000000D+00  0.1000000000D+01
 ****
 36 0
 S   3 1.00       0.000000000000
      0.1924060000D+02  0.3282807697D-01
      0.2899200000D+01  0.2312085421D+00
      0.6534000000D+00  0.8172399161D+00
 S   1 1.00       0.000000000000
      0.1776000000D+00  0.1000000000D+01
 ****
 37 0
 S   3 1.00       0.000000000000
      0.1924060000D+02  0.3282807697D-01
      0.2899200000D+01  0.2312085421D+00
      0.6534000000D+00  0.8172399161D+00
 S   1 1.00       0.000000000000
      0.1776000000D+00  0.1000000000D+01
 ****
 38 0
 S   3 1.00       0.000000000000
      0.1924060000D+02  0.3282807697D-01
      0.2899200000D+01  0.2312085421D+00
      0.6534000000D+00  0.8172399161D+00
 S   1 1.00       0.000000000000
      0.1776000000D+00  0.1000000000D+01
 ****

 ***********************************************************************************************************************************
 *             ATOMIC CENTER             *        ATOMIC ORBITAL       *                     GAUSSIAN FUNCTIONS                    *
 ***********************************************************************************************************************************
 *                                       * FUNCTION    SHELL    SCALE  *                                                           *
 *    ATOM   X-COORD  Y-COORD  Z-COORD   *  NUMBER     TYPE     FACTOR *  EXPONENT    S-COEF      P-COEF      D-COEF      F-COEF   *
 ***********************************************************************************************************************************
 *     C     -0.00775  0.00219  0.00455                                                                                            *
+                                                1   S           1.00                                                               
+                                                                      0.423300D+040.122000D-020.000000D+000.000000D+000.000000D+00 
 *                                                                     0.634900D+030.934200D-020.000000D+000.000000D+000.000000D+00*
 *                                                                     0.146100D+030.454520D-010.000000D+000.000000D+000.000000D+00*
 *                                                                     0.425000D+020.154657D+000.000000D+000.000000D+000.000000D+00*
 *                                                                     0.141900D+020.358866D+000.000000D+000.000000D+000.000000D+00*
 *                                                                     0.514800D+010.438632D+000.000000D+000.000000D+000.000000D+00*
 *                                                                     0.196700D+010.145918D+000.000000D+000.000000D+000.000000D+00*
 *                                               2   S           1.00                                                              *
+                                                                      0.514800D+01-.168367D+000.000000D+000.000000D+000.000000D+00 
 *                                                                     0.496200D+000.106009D+010.000000D+000.000000D+000.000000D+00*
 *                                               3   S           1.00                                                              *
+                                                                      0.153300D+000.100000D+010.000000D+000.000000D+000.000000D+00 
 *                                           4-  6   P           1.00                                                              *
+                                                                      0.181600D+020.000000D+000.185390D-010.000000D+000.000000D+00 
 *                                                                     0.398600D+010.000000D+000.115436D+000.000000D+000.000000D+00*
 *                                                                     0.114300D+010.000000D+000.386188D+000.000000D+000.000000D+00*
 *                                                                     0.359400D+000.000000D+000.640114D+000.000000D+000.000000D+00*
 *                                           7-  9   P           1.00                                                              *
+                                                                      0.114600D+000.000000D+000.100000D+010.000000D+000.000000D+00 
 *---------------------------------------------------------------------------------------------------------------------------------*
 *     C      0.00096  0.00985  2.75118                                                                                            *
+                                               10   S           1.00                                                               
+                                                                      0.423300D+040.122000D-020.000000D+000.000000D+000.000000D+00 
 *                                                                     0.634900D+030.934200D-020.000000D+000.000000D+000.000000D+00*
 *                                                                     0.146100D+030.454520D-010.000000D+000.000000D+000.000000D+00*
 *                                                                     0.425000D+020.154657D+000.000000D+000.000000D+000.000000D+00*
 *                                                                     0.141900D+020.358866D+000.000000D+000.000000D+000.000000D+00*
 *                                                                     0.514800D+010.438632D+000.000000D+000.000000D+000.000000D+00*
 *                                                                     0.196700D+010.145918D+000.000000D+000.000000D+000.000000D+00*
 *                                              11   S           1.00                                                              *
+                                                                      0.514800D+01-.168367D+000.000000D+000.000000D+000.000000D+00 
 *                                                                     0.496200D+000.106009D+010.000000D+000.000000D+000.000000D+00*
 *                                              12   S           1.00                                                              *
+                                                                      0.153300D+000.100000D+010.000000D+000.000000D+000.000000D+00 
 *                                          13- 15   P           1.00                                                              *
+                                                                      0.181600D+020.000000D+000.185390D-010.000000D+000.000000D+00 
 *                                                                     0.398600D+010.000000D+000.115436D+000.000000D+000.000000D+00*
 *                                                                     0.114300D+010.000000D+000.386188D+000.000000D+000.000000D+00*
 *                                                                     0.359400D+000.000000D+000.640114D+000.000000D+000.000000D+00*
 *                                          16- 18   P           1.00                                                              *
+                                                                      0.114600D+000.000000D+000.100000D+010.000000D+000.000000D+00 
 *---------------------------------------------------------------------------------------------------------------------------------*
 *     N      2.49827  0.01096  3.63387                                                                                            *
+                                               19   S           1.00                                                               
+                                                                      0.590900D+040.119000D-020.000000D+000.000000D+000.000000D+00 
 *                                                                     0.887500D+030.909900D-020.000000D+000.000000D+000.000000D+00*
 *                                                                     0.204700D+030.441450D-010.000000D+000.000000D+000.000000D+00*
 *                                                                     0.598400D+020.150464D+000.000000D+000.000000D+000.000000D+00*
 *                                                                     0.200000D+020.356741D+000.000000D+000.000000D+000.000000D+00*
 *                                                                     0.719300D+010.446533D+000.000000D+000.000000D+000.000000D+00*
 *                                                                     0.268600D+010.145603D+000.000000D+000.000000D+000.000000D+00*
 *                                              20   S           1.00                                                              *
+                                                                      0.719300D+01-.160405D+000.000000D+000.000000D+000.000000D+00 
 *                                                                     0.700000D+000.105822D+010.000000D+000.000000D+000.000000D+00*
 *                                              21   S           1.00                                                              *
+                                                                      0.213300D+000.100000D+010.000000D+000.000000D+000.000000D+00 
 *                                          22- 24   P           1.00                                                              *
+                                                                      0.267900D+020.000000D+000.182540D-010.000000D+000.000000D+00 
 *                                                                     0.595600D+010.000000D+000.116461D+000.000000D+000.000000D+00*
 *                                                                     0.170700D+010.000000D+000.390178D+000.000000D+000.000000D+00*
 *                                                                     0.531400D+000.000000D+000.637102D+000.000000D+000.000000D+00*
 *                                          25- 27   P           1.00                                                              *
+                                                                      0.165400D+000.000000D+000.100000D+010.000000D+000.000000D+00 
 *---------------------------------------------------------------------------------------------------------------------------------*
 *     C      4.01312  0.02574  1.51471                                                                                            *
+                                               28   S           1.00                                                               
+                                                                      0.423300D+040.122000D-020.000000D+000.000000D+000.000000D+00 
 *                                                                     0.634900D+030.934200D-020.000000D+000.000000D+000.000000D+00*
 *                                                                     0.146100D+030.454520D-010.000000D+000.000000D+000.000000D+00*
 *                                                                     0.425000D+020.154657D+000.000000D+000.000000D+000.000000D+00*
 *                                                                     0.141900D+020.358866D+000.000000D+000.000000D+000.000000D+00*
 *                                                                     0.514800D+010.438632D+000.000000D+000.000000D+000.000000D+00*
 *                                                                     0.196700D+010.145918D+000.000000D+000.000000D+000.000000D+00*
 *                                              29   S           1.00                                                              *
+                                                                      0.514800D+01-.168367D+000.000000D+000.000000D+000.000000D+00 
 *                                                                     0.496200D+000.106009D+010.000000D+000.000000D+000.000000D+00*
 *                                              30   S           1.00                                                              *
+                                                                      0.153300D+000.100000D+010.000000D+000.000000D+000.000000D+00 
 *                                          31- 33   P           1.00                                                              *
+                                                                      0.181600D+020.000000D+000.185390D-010.000000D+000.000000D+00 
 *                                                                     0.398600D+010.000000D+000.115436D+000.000000D+000.000000D+00*
 *                                                                     0.114300D+010.000000D+000.386188D+000.000000D+000.000000D+00*
 *                                                                     0.359400D+000.000000D+000.640114D+000.000000D+000.000000D+00*
 *                                          34- 36   P           1.00                                                              *
+                                                                      0.114600D+000.000000D+000.100000D+010.000000D+000.000000D+00 
 *---------------------------------------------------------------------------------------------------------------------------------*
 *     C      2.47966  0.00973 -0.76105                                                                                            *
+                                               37   S           1.00                                                               
+                                                                      0.423300D+040.122000D-020.000000D+000.000000D+000.000000D+00 
 *                                                                     0.634900D+030.934200D-020.000000D+000.000000D+000.000000D+00*
 *                                                                     0.146100D+030.454520D-010.000000D+000.000000D+000.000000D+00*
 *                                                                     0.425000D+020.154657D+000.000000D+000.000000D+000.000000D+00*
 *                                                                     0.141900D+020.358866D+000.000000D+000.000000D+000.000000D+00*
 *                                                                     0.514800D+010.438632D+000.000000D+000.000000D+000.000000D+00*
 *                                                                     0.196700D+010.145918D+000.000000D+000.000000D+000.000000D+00*
 *                                              38   S           1.00                                                              *
+                                                                      0.514800D+01-.168367D+000.000000D+000.000000D+000.000000D+00 
 *                                                                     0.496200D+000.106009D+010.000000D+000.000000D+000.000000D+00*
 *                                              39   S           1.00                                                              *
+                                                                      0.153300D+000.100000D+010.000000D+000.000000D+000.000000D+00 
 *                                          40- 42   P           1.00                                                              *
+                                                                      0.181600D+020.000000D+000.185390D-010.000000D+000.000000D+00 
 *                                                                     0.398600D+010.000000D+000.115436D+000.000000D+000.000000D+00*
 *                                                                     0.114300D+010.000000D+000.386188D+000.000000D+000.000000D+00*
 *                                                                     0.359400D+000.000000D+000.640114D+000.000000D+000.000000D+00*
 *                                          43- 45   P           1.00                                                              *
+                                                                      0.114600D+000.000000D+000.100000D+010.000000D+000.000000D+00 
 *---------------------------------------------------------------------------------------------------------------------------------*
 *     C     -2.13203 -0.01523  4.29110                                                                                            *
+                                               46   S           1.00                                                               
+                                                                      0.423300D+040.122000D-020.000000D+000.000000D+000.000000D+00 
 *                                                                     0.634900D+030.934200D-020.000000D+000.000000D+000.000000D+00*
 *                                                                     0.146100D+030.454520D-010.000000D+000.000000D+000.000000D+00*
 *                                                                     0.425000D+020.154657D+000.000000D+000.000000D+000.000000D+00*
 *                                                                     0.141900D+020.358866D+000.000000D+000.000000D+000.000000D+00*
 *                                                                     0.514800D+010.438632D+000.000000D+000.000000D+000.000000D+00*
 *                                                                     0.196700D+010.145918D+000.000000D+000.000000D+000.000000D+00*
 *                                              47   S           1.00                                                              *
+                                                                      0.514800D+01-.168367D+000.000000D+000.000000D+000.000000D+00 
 *                                                                     0.496200D+000.106009D+010.000000D+000.000000D+000.000000D+00*
 *                                              48   S           1.00                                                              *
+                                                                      0.153300D+000.100000D+010.000000D+000.000000D+000.000000D+00 
 *                                          49- 51   P           1.00                                                              *
+                                                                      0.181600D+020.000000D+000.185390D-010.000000D+000.000000D+00 
 *                                                                     0.398600D+010.000000D+000.115436D+000.000000D+000.000000D+00*
 *                                                                     0.114300D+010.000000D+000.386188D+000.000000D+000.000000D+00*
 *                                                                     0.359400D+000.000000D+000.640114D+000.000000D+000.000000D+00*
 *                                          52- 54   P           1.00                                                              *
+                                                                      0.114600D+000.000000D+000.100000D+010.000000D+000.000000D+00 
 *---------------------------------------------------------------------------------------------------------------------------------*
 *     C     -2.17543 -0.05236  6.97290                                                                                            *
+                                               55   S           1.00                                                               
+                                                                      0.423300D+040.122000D-020.000000D+000.000000D+000.000000D+00 
 *                                                                     0.634900D+030.934200D-020.000000D+000.000000D+000.000000D+00*
 *                                                                     0.146100D+030.454520D-010.000000D+000.000000D+000.000000D+00*
 *                                                                     0.425000D+020.154657D+000.000000D+000.000000D+000.000000D+00*
 *                                                                     0.141900D+020.358866D+000.000000D+000.000000D+000.000000D+00*
 *                                                                     0.514800D+010.438632D+000.000000D+000.000000D+000.000000D+00*
 *                                                                     0.196700D+010.145918D+000.000000D+000.000000D+000.000000D+00*
 *                                              56   S           1.00                                                              *
+                                                                      0.514800D+01-.168367D+000.000000D+000.000000D+000.000000D+00 
 *                                                                     0.496200D+000.106009D+010.000000D+000.000000D+000.000000D+00*
 *                                              57   S           1.00                                                              *
+                                                                      0.153300D+000.100000D+010.000000D+000.000000D+000.000000D+00 
 *                                          58- 60   P           1.00                                                              *
+                                                                      0.181600D+020.000000D+000.185390D-010.000000D+000.000000D+00 
 *                                                                     0.398600D+010.000000D+000.115436D+000.000000D+000.000000D+00*
 *                                                                     0.114300D+010.000000D+000.386188D+000.000000D+000.000000D+00*
 *                                                                     0.359400D+000.000000D+000.640114D+000.000000D+000.000000D+00*
 *                                          61- 63   P           1.00                                                              *
+                                                                      0.114600D+000.000000D+000.100000D+010.000000D+000.000000D+00 
 *---------------------------------------------------------------------------------------------------------------------------------*
 *     N     -0.05626 -0.05465  8.48784                                                                                            *
+                                               64   S           1.00                                                               
+                                                                      0.590900D+040.119000D-020.000000D+000.000000D+000.000000D+00 
 *                                                                     0.887500D+030.909900D-020.000000D+000.000000D+000.000000D+00*
 *                                                                     0.204700D+030.441450D-010.000000D+000.000000D+000.000000D+00*
 *                                                                     0.598400D+020.150464D+000.000000D+000.000000D+000.000000D+00*
 *                                                                     0.200000D+020.356741D+000.000000D+000.000000D+000.000000D+00*
 *                                                                     0.719300D+010.446533D+000.000000D+000.000000D+000.000000D+00*
 *                                                                     0.268600D+010.145603D+000.000000D+000.000000D+000.000000D+00*
 *                                              65   S           1.00                                                              *
+                                                                      0.719300D+01-.160405D+000.000000D+000.000000D+000.000000D+00 
 *                                                                     0.700000D+000.105822D+010.000000D+000.000000D+000.000000D+00*
 *                                              66   S           1.00                                                              *
+                                                                      0.213300D+000.100000D+010.000000D+000.000000D+000.000000D+00 
 *                                          67- 69   P           1.00                                                              *
+                                                                      0.267900D+020.000000D+000.182540D-010.000000D+000.000000D+00 
 *                                                                     0.595600D+010.000000D+000.116461D+000.000000D+000.000000D+00*
 *                                                                     0.170700D+010.000000D+000.390178D+000.000000D+000.000000D+00*
 *                                                                     0.531400D+000.000000D+000.637102D+000.000000D+000.000000D+00*
 *                                          70- 72   P           1.00                                                              *
+                                                                      0.165400D+000.000000D+000.100000D+010.000000D+000.000000D+00 
 *---------------------------------------------------------------------------------------------------------------------------------*
 *     C     -0.93885 -0.09845 10.98479                                                                                            *
+                                               73   S           1.00                                                               
+                                                                      0.423300D+040.122000D-020.000000D+000.000000D+000.000000D+00 
 *                                                                     0.634900D+030.934200D-020.000000D+000.000000D+000.000000D+00*
 *                                                                     0.146100D+030.454520D-010.000000D+000.000000D+000.000000D+00*
 *                                                                     0.425000D+020.154657D+000.000000D+000.000000D+000.000000D+00*
 *                                                                     0.141900D+020.358866D+000.000000D+000.000000D+000.000000D+00*
 *                                                                     0.514800D+010.438632D+000.000000D+000.000000D+000.000000D+00*
 *                                                                     0.196700D+010.145918D+000.000000D+000.000000D+000.000000D+00*
 *                                              74   S           1.00                                                              *
+                                                                      0.514800D+01-.168367D+000.000000D+000.000000D+000.000000D+00 
 *                                                                     0.496200D+000.106009D+010.000000D+000.000000D+000.000000D+00*
 *                                              75   S           1.00                                                              *
+                                                                      0.153300D+000.100000D+010.000000D+000.000000D+000.000000D+00 
 *                                          76- 78   P           1.00                                                              *
+                                                                      0.181600D+020.000000D+000.185390D-010.000000D+000.000000D+00 
 *                                                                     0.398600D+010.000000D+000.115436D+000.000000D+000.000000D+00*
 *                                                                     0.114300D+010.000000D+000.386188D+000.000000D+000.000000D+00*
 *                                                                     0.359400D+000.000000D+000.640114D+000.000000D+000.000000D+00*
 *                                          79- 81   P           1.00                                                              *
+                                                                      0.114600D+000.000000D+000.100000D+010.000000D+000.000000D+00 
 *---------------------------------------------------------------------------------------------------------------------------------*
 *     C     -3.68508 -0.14589 10.99291                                                                                            *
+                                               82   S           1.00                                                               
+                                                                      0.423300D+040.122000D-020.000000D+000.000000D+000.000000D+00 
 *                                                                     0.634900D+030.934200D-020.000000D+000.000000D+000.000000D+00*
 *                                                                     0.146100D+030.454520D-010.000000D+000.000000D+000.000000D+00*
 *                                                                     0.425000D+020.154657D+000.000000D+000.000000D+000.000000D+00*
 *                                                                     0.141900D+020.358866D+000.000000D+000.000000D+000.000000D+00*
 *                                                                     0.514800D+010.438632D+000.000000D+000.000000D+000.000000D+00*
 *                                                                     0.196700D+010.145918D+000.000000D+000.000000D+000.000000D+00*
 *                                              83   S           1.00                                                              *
+                                                                      0.514800D+01-.168367D+000.000000D+000.000000D+000.000000D+00 
 *                                                                     0.496200D+000.106009D+010.000000D+000.000000D+000.000000D+00*
 *                                              84   S           1.00                                                              *
+                                                                      0.153300D+000.100000D+010.000000D+000.000000D+000.000000D+00 
 *                                          85- 87   P           1.00                                                              *
+                                                                      0.181600D+020.000000D+000.185390D-010.000000D+000.000000D+00 
 *                                                                     0.398600D+010.000000D+000.115436D+000.000000D+000.000000D+00*
 *                                                                     0.114300D+010.000000D+000.386188D+000.000000D+000.000000D+00*
 *                                                                     0.359400D+000.000000D+000.640114D+000.000000D+000.000000D+00*
 *                                          88- 90   P           1.00                                                              *
+                                                                      0.114600D+000.000000D+000.100000D+010.000000D+000.000000D+00 
 *---------------------------------------------------------------------------------------------------------------------------------*
 *     C     -4.45072 -0.11958  8.50566                                                                                            *
+                                               91   S           1.00                                                               
+                                                                      0.423300D+040.122000D-020.000000D+000.000000D+000.000000D+00 
 *                                                                     0.634900D+030.934200D-020.000000D+000.000000D+000.000000D+00*
 *                                                                     0.146100D+030.454520D-010.000000D+000.000000D+000.000000D+00*
 *                                                                     0.425000D+020.154657D+000.000000D+000.000000D+000.000000D+00*
 *                                                                     0.141900D+020.358866D+000.000000D+000.000000D+000.000000D+00*
 *                                                                     0.514800D+010.438632D+000.000000D+000.000000D+000.000000D+00*
 *                                                                     0.196700D+010.145918D+000.000000D+000.000000D+000.000000D+00*
 *                                              92   S           1.00                                                              *
+                                                                      0.514800D+01-.168367D+000.000000D+000.000000D+000.000000D+00 
[...]
    70    N    8  py     Ryd( 3p)     0.00172       0.61557
    71    N    8  pz     Val( 2p)     0.62618      -0.33065
    72    N    8  pz     Ryd( 3p)     0.00222       0.96499

    73    C    9  S      Cor( 1S)     0.99952      -9.95949
    74    C    9  S      Val( 2S)     0.44100      -0.28661
    75    C    9  S      Ryd( 3S)     0.00137       0.91801
    76    C    9  px     Val( 2p)     0.51229      -0.18836
    77    C    9  px     Ryd( 3p)     0.00462       0.47716
    78    C    9  py     Val( 2p)     0.50584      -0.25358
    79    C    9  py     Ryd( 3p)     0.00222       0.30168
    80    C    9  pz     Val( 2p)     0.45342      -0.16688
    81    C    9  pz     Ryd( 3p)     0.00376       0.51729

    82    C   10  S      Cor( 1S)     0.99955      -9.91189
    83    C   10  S      Val( 2S)     0.50521      -0.31986
    84    C   10  S      Ryd( 3S)     0.00063       0.93457
    85    C   10  px     Val( 2p)     0.52650      -0.16141
    86    C   10  px     Ryd( 3p)     0.00284       0.29890
    87    C   10  py     Val( 2p)     0.46772      -0.23834
    88    C   10  py     Ryd( 3p)     0.00084       0.24465
    89    C   10  pz     Val( 2p)     0.56844      -0.15458
    90    C   10  pz     Ryd( 3p)     0.00208       0.34922

    91    C   11  S      Cor( 1S)     0.99955      -9.90985
    92    C   11  S      Val( 2S)     0.50627      -0.32104
    93    C   11  S      Ryd( 3S)     0.00064       0.93151
    94    C   11  px     Val( 2p)     0.57599      -0.15406
    95    C   11  px     Ryd( 3p)     0.00305       0.30828
    96    C   11  py     Val( 2p)     0.50319      -0.24063
    97    C   11  py     Ryd( 3p)     0.00093       0.24369
    98    C   11  pz     Val( 2p)     0.52194      -0.16492
    99    C   11  pz     Ryd( 3p)     0.00187       0.34159

   100    C   12  S      Cor( 1S)     0.99948      -9.93712
   101    C   12  S      Val( 2S)     0.49281      -0.31939
   102    C   12  S      Ryd( 3S)     0.00114       1.12178
   103    C   12  px     Val( 2p)     0.53635      -0.17107
   104    C   12  px     Ryd( 3p)     0.00333       0.38211
   105    C   12  py     Val( 2p)     0.37474      -0.25020
   106    C   12  py     Ryd( 3p)     0.00138       0.25532
   107    C   12  pz     Val( 2p)     0.57983      -0.17715
   108    C   12  pz     Ryd( 3p)     0.00439       0.40808

   109    C   13  S      Cor( 1S)     0.99953      -9.96422
   110    C   13  S      Val( 2S)     0.44059      -0.28948
   111    C   13  S      Ryd( 3S)     0.00136       0.91595
   112    C   13  px     Val( 2p)     0.50139      -0.17588
   113    C   13  px     Ryd( 3p)     0.00501       0.51761
   114    C   13  py     Val( 2p)     0.46951      -0.25368
   115    C   13  py     Ryd( 3p)     0.00239       0.30092
   116    C   13  pz     Val( 2p)     0.46277      -0.17790
   117    C   13  pz     Ryd( 3p)     0.00338       0.48969

   118    N   14  S      Cor( 1S)     0.99970     -13.99168
   119    N   14  S      Val( 2S)     0.68940      -0.66943
   120    N   14  S      Ryd( 3S)     0.00049       1.60789
   121    N   14  px     Val( 2p)     0.62619      -0.33069
   122    N   14  px     Ryd( 3p)     0.00222       0.96737
   123    N   14  py     Val( 2p)     0.66062      -0.33070
   124    N   14  py     Ryd( 3p)     0.00172       0.61967
   125    N   14  pz     Val( 2p)     0.73961      -0.37686
   126    N   14  pz     Ryd( 3p)     0.00404       1.94091

   127    C   15  S      Cor( 1S)     0.99952      -9.95949
   128    C   15  S      Val( 2S)     0.44100      -0.28661
   129    C   15  S      Ryd( 3S)     0.00137       0.91800
   130    C   15  px     Val( 2p)     0.45340      -0.16686
   131    C   15  px     Ryd( 3p)     0.00376       0.51725
   132    C   15  py     Val( 2p)     0.50589      -0.25357
   133    C   15  py     Ryd( 3p)     0.00222       0.30187
   134    C   15  pz     Val( 2p)     0.51228      -0.18838
   135    C   15  pz     Ryd( 3p)     0.00462       0.47702

   136    C   16  S      Cor( 1S)     0.99955      -9.91190
   137    C   16  S      Val( 2S)     0.50521      -0.31987
   138    C   16  S      Ryd( 3S)     0.00063       0.93458
   139    C   16  px     Val( 2p)     0.56850      -0.15455
   140    C   16  px     Ryd( 3p)     0.00208       0.34927
   141    C   16  py     Val( 2p)     0.46774      -0.23832
   142    C   16  py     Ryd( 3p)     0.00084       0.24464
   143    C   16  pz     Val( 2p)     0.52641      -0.16146
   144    C   16  pz     Ryd( 3p)     0.00284       0.29886

   145    C   17  S      Cor( 1S)     0.99955      -9.90985
   146    C   17  S      Val( 2S)     0.50627      -0.32104
   147    C   17  S      Ryd( 3S)     0.00064       0.93150
   148    C   17  px     Val( 2p)     0.52195      -0.16491
   149    C   17  px     Ryd( 3p)     0.00187       0.34160
   150    C   17  py     Val( 2p)     0.50326      -0.24059
   151    C   17  py     Ryd( 3p)     0.00093       0.24372
   152    C   17  pz     Val( 2p)     0.57591      -0.15412
   153    C   17  pz     Ryd( 3p)     0.00305       0.30825

   154    C   18  S      Cor( 1S)     0.99948      -9.93712
   155    C   18  S      Val( 2S)     0.49281      -0.31939
   156    C   18  S      Ryd( 3S)     0.00114       1.12179
   157    C   18  px     Val( 2p)     0.57991      -0.17714
   158    C   18  px     Ryd( 3p)     0.00440       0.40778
   159    C   18  py     Val( 2p)     0.37469      -0.25020
   160    C   18  py     Ryd( 3p)     0.00138       0.25550
   161    C   18  pz     Val( 2p)     0.53631      -0.17107
   162    C   18  pz     Ryd( 3p)     0.00333       0.38222

   163    C   19  S      Cor( 1S)     0.99953      -9.96421
   164    C   19  S      Val( 2S)     0.44059      -0.28947
   165    C   19  S      Ryd( 3S)     0.00136       0.91596
   166    C   19  px     Val( 2p)     0.46279      -0.17787
   167    C   19  px     Ryd( 3p)     0.00338       0.48982
   168    C   19  py     Val( 2p)     0.46950      -0.25370
   169    C   19  py     Ryd( 3p)     0.00239       0.30075
   170    C   19  pz     Val( 2p)     0.50141      -0.17588
   171    C   19  pz     Ryd( 3p)     0.00501       0.51764

   172    C   20  S      Cor( 1S)     0.99955      -9.90985
   173    C   20  S      Val( 2S)     0.50627      -0.32104
   174    C   20  S      Ryd( 3S)     0.00064       0.93151
   175    C   20  px     Val( 2p)     0.57599      -0.15405
   176    C   20  px     Ryd( 3p)     0.00305       0.30829
   177    C   20  py     Val( 2p)     0.50318      -0.24063
   178    C   20  py     Ryd( 3p)     0.00093       0.24371
   179    C   20  pz     Val( 2p)     0.52194      -0.16491
   180    C   20  pz     Ryd( 3p)     0.00187       0.34159

   181    C   21  S      Cor( 1S)     0.99955      -9.91189
   182    C   21  S      Val( 2S)     0.50521      -0.31986
   183    C   21  S      Ryd( 3S)     0.00063       0.93458
   184    C   21  px     Val( 2p)     0.52652      -0.16140
   185    C   21  px     Ryd( 3p)     0.00284       0.29890
   186    C   21  py     Val( 2p)     0.46764      -0.23838
   187    C   21  py     Ryd( 3p)     0.00083       0.24460
   188    C   21  pz     Val( 2p)     0.56852      -0.15454
   189    C   21  pz     Ryd( 3p)     0.00208       0.34928

   190    C   22  S      Cor( 1S)     0.99952      -9.95948
   191    C   22  S      Val( 2S)     0.44100      -0.28660
   192    C   22  S      Ryd( 3S)     0.00137       0.91800
   193    C   22  px     Val( 2p)     0.51229      -0.18835
   194    C   22  px     Ryd( 3p)     0.00461       0.47719
   195    C   22  py     Val( 2p)     0.50587      -0.25357
   196    C   22  py     Ryd( 3p)     0.00222       0.30186
   197    C   22  pz     Val( 2p)     0.45339      -0.16687
   198    C   22  pz     Ryd( 3p)     0.00375       0.51713

   199    N   23  S      Cor( 1S)     0.99970     -13.99169
   200    N   23  S      Val( 2S)     0.68939      -0.66943
   201    N   23  S      Ryd( 3S)     0.00049       1.60790
   202    N   23  px     Val( 2p)     0.73963      -0.37699
   203    N   23  px     Ryd( 3p)     0.00404       1.94762
   204    N   23  py     Val( 2p)     0.66051      -0.33053
   205    N   23  py     Ryd( 3p)     0.00173       0.61032
   206    N   23  pz     Val( 2p)     0.62620      -0.33071
   207    N   23  pz     Ryd( 3p)     0.00222       0.96903

   208   Fe   24  S      Cor( 3S)     0.99802      -3.36900
   209   Fe   24  S      Val( 4S)     0.13066       0.24200
   210   Fe   24  S      Ryd( 5S)     0.00098       1.19816
   211   Fe   24  px     Cor( 3p)     0.99937      -2.23519
   212   Fe   24  px     Ryd( 5p)     0.00098       0.38487
   213   Fe   24  px     Ryd( 4p)     0.00020       0.12669
   214   Fe   24  py     Cor( 3p)     0.99708      -2.26045
   215   Fe   24  py     Ryd( 5p)     0.00112       0.53623
   216   Fe   24  py     Ryd( 4p)     0.00014       0.19326
   217   Fe   24  pz     Cor( 3p)     0.99937      -2.23519
   218   Fe   24  pz     Ryd( 5p)     0.00098       0.38488
   219   Fe   24  pz     Ryd( 4p)     0.00020       0.12669
   220   Fe   24  dxy    Val( 3d)     0.44923      -0.30826
   221   Fe   24  dxy    Ryd( 4d)     0.00148       0.62791
   222   Fe   24  dxz    Val( 3d)     0.12303      -0.28507
   223   Fe   24  dxz    Ryd( 4d)     0.00158       0.79956
   224   Fe   24  dyz    Val( 3d)     0.44922      -0.30827
   225   Fe   24  dyz    Ryd( 4d)     0.00148       0.62812
   226   Fe   24  dx2y2  Val( 3d)     0.36514      -0.31750
   227   Fe   24  dx2y2  Ryd( 4d)     0.00085       0.99112
   228   Fe   24  dz2    Val( 3d)     0.28736      -0.29876
   229   Fe   24  dz2    Ryd( 4d)     0.00148       0.89606

   230    O   25  S      Cor( 1S)     0.99998     -18.60671
   231    O   25  S      Val( 2S)     0.96227      -1.12111
   232    O   25  S      Ryd( 3S)     0.00011       2.79554
   233    O   25  px     Val( 2p)     0.59093      -0.32662
   234    O   25  px     Ryd( 3p)     0.00018       0.78764
   235    O   25  py     Val( 2p)     0.69329      -0.39547
   236    O   25  py     Ryd( 3p)     0.00014       1.39433
   237    O   25  pz     Val( 2p)     0.59094      -0.32663
   238    O   25  pz     Ryd( 3p)     0.00018       0.78772

   239    C   26  S      Cor( 1S)     0.99948      -9.93712
   240    C   26  S      Val( 2S)     0.49280      -0.31938
   241    C   26  S      Ryd( 3S)     0.00114       1.12182
   242    C   26  px     Val( 2p)     0.53635      -0.17106
   243    C   26  px     Ryd( 3p)     0.00333       0.38210
   244    C   26  py     Val( 2p)     0.37464      -0.25019
   245    C   26  py     Ryd( 3p)     0.00137       0.25593
   246    C   26  pz     Val( 2p)     0.57991      -0.17715
   247    C   26  pz     Ryd( 3p)     0.00440       0.40747

   248    H   27  S      Val( 1S)     0.37472      -0.01112
   249    H   27  S      Ryd( 2S)     0.00033       0.84971

   250    H   28  S      Val( 1S)     0.37386      -0.01027
   251    H   28  S      Ryd( 2S)     0.00033       0.85108

   252    H   29  S      Val( 1S)     0.37364      -0.04290
   253    H   29  S      Ryd( 2S)     0.00054       0.90058

   254    H   30  S      Val( 1S)     0.37472      -0.01112
   255    H   30  S      Ryd( 2S)     0.00033       0.84971

   256    H   31  S      Val( 1S)     0.37472      -0.01111
   257    H   31  S      Ryd( 2S)     0.00033       0.84971

   258    H   32  S      Val( 1S)     0.37472      -0.01111
   259    H   32  S      Ryd( 2S)     0.00033       0.84972

   260    H   33  S      Val( 1S)     0.37386      -0.01027
   261    H   33  S      Ryd( 2S)     0.00033       0.85108

   262    H   34  S      Val( 1S)     0.37386      -0.01027
   263    H   34  S      Ryd( 2S)     0.00033       0.85108

   264    H   35  S      Val( 1S)     0.37386      -0.01026
   265    H   35  S      Ryd( 2S)     0.00033       0.85108

   266    H   36  S      Val( 1S)     0.37364      -0.04290
   267    H   36  S      Ryd( 2S)     0.00054       0.90059

   268    H   37  S      Val( 1S)     0.37364      -0.04291
   269    H   37  S      Ryd( 2S)     0.00054       0.90058

   270    H   38  S      Val( 1S)     0.37364      -0.04290
   271    H   38  S      Ryd( 2S)     0.00054       0.90058

 [  5 electrons found in the effective core potential]

 WARNING:  2 low occupancy (<0.9990e) core orbitals found on Fe24

 WARNING:  Population inversion found on atom Fe24


 Summary of Natural Population Analysis:                  
                                                          
                                       Natural Population 
                Natural  -----------------------------------------------
    Atom  No    Charge         Core      Valence    Rydberg      Total
 -----------------------------------------------------------------------
      C    1   -0.07384      0.99955     2.06790    0.00639     3.07384
      C    2    0.07596      0.99952     1.91256    0.01197     2.92404
      N    3   -0.22386      0.99970     2.71568    0.00848     3.72386
      C    4    0.11406      0.99953     1.87427    0.01214     2.88594
      C    5   -0.11342      0.99955     2.10738    0.00649     3.11342
      C    6    0.00656      0.99948     1.98372    0.01024     2.99344
      C    7    0.11409      0.99953     1.87425    0.01214     2.88591
      N    8   -0.22395      0.99970     2.71577    0.00849     3.72395
      C    9    0.07596      0.99952     1.91256    0.01197     2.92404
      C   10   -0.07381      0.99955     2.06787    0.00639     3.07381
      C   11   -0.11343      0.99955     2.10738    0.00649     3.11343
      C   12    0.00655      0.99948     1.98373    0.01024     2.99345
      C   13    0.11408      0.99953     1.87426    0.01214     2.88592
      N   14   -0.22401      0.99970     2.71583    0.00849     3.72401
      C   15    0.07595      0.99952     1.91257    0.01197     2.92405
      C   16   -0.07380      0.99955     2.06786    0.00639     3.07380
      C   17   -0.11343      0.99955     2.10739    0.00649     3.11343
      C   18    0.00657      0.99948     1.98371    0.01024     2.99343
      C   19    0.11405      0.99953     1.87429    0.01214     2.88595
      C   20   -0.11342      0.99955     2.10738    0.00649     3.11342
      C   21   -0.07383      0.99955     2.06789    0.00639     3.07383
      C   22    0.07595      0.99952     1.91256    0.01197     2.92405
      N   23   -0.22392      0.99970     2.71573    0.00849     3.72392
     Fe   24    2.19007      8.99385     1.80464    0.01145    10.80993
      O   25    0.16198      0.99998     2.83743    0.00061     3.83802
      C   26    0.00658      0.99948     1.98370    0.01024     2.99342
      H   27    0.12496      0.00000     0.37472    0.00033     0.37504
      H   28    0.12581      0.00000     0.37386    0.00033     0.37419
      H   29    0.12582      0.00000     0.37364    0.00054     0.37418
      H   30    0.12496      0.00000     0.37472    0.00033     0.37504
      H   31    0.12496      0.00000     0.37472    0.00033     0.37504
      H   32    0.12496      0.00000     0.37472    0.00033     0.37504
      H   33    0.12581      0.00000     0.37386    0.00033     0.37419
      H   34    0.12581      0.00000     0.37386    0.00033     0.37419
      H   35    0.12581      0.00000     0.37386    0.00033     0.37419
      H   36    0.12582      0.00000     0.37364    0.00054     0.37418
      H   37    0.12582      0.00000     0.37364    0.00054     0.37418
      H   38    0.12582      0.00000     0.37364    0.00054     0.37418
 =======================================================================
   * Total *    3.00000     33.98314    59.77713    0.23973    94.00000

                                 Natural Population      
 --------------------------------------------------------
   Effective Core             5.00000
   Core                      28.98314 ( 99.9419% of  29)
   Valence                   59.77713 ( 99.6286% of  60)
   Natural Minimal Basis     93.76027 ( 99.7450% of  94)
   Natural Rydberg Basis      0.23973 (  0.2550% of  94)
 --------------------------------------------------------

    Atom  No          Natural Electron Configuration
 ----------------------------------------------------------------------------
      C    1      [core]2S( 0.51)2p( 1.56)3p( 0.01)
      C    2      [core]2S( 0.44)2p( 1.47)3p( 0.01)
      N    3      [core]2S( 0.69)2p( 2.03)3p( 0.01)
      C    4      [core]2S( 0.44)2p( 1.43)3p( 0.01)
      C    5      [core]2S( 0.51)2p( 1.60)3p( 0.01)
      C    6      [core]2S( 0.49)2p( 1.49)3p( 0.01)
      C    7      [core]2S( 0.44)2p( 1.43)3p( 0.01)
      N    8      [core]2S( 0.69)2p( 2.03)3p( 0.01)
      C    9      [core]2S( 0.44)2p( 1.47)3p( 0.01)
      C   10      [core]2S( 0.51)2p( 1.56)3p( 0.01)
      C   11      [core]2S( 0.51)2p( 1.60)3p( 0.01)
      C   12      [core]2S( 0.49)2p( 1.49)3p( 0.01)
      C   13      [core]2S( 0.44)2p( 1.43)3p( 0.01)
      N   14      [core]2S( 0.69)2p( 2.03)3p( 0.01)
      C   15      [core]2S( 0.44)2p( 1.47)3p( 0.01)
      C   16      [core]2S( 0.51)2p( 1.56)3p( 0.01)
      C   17      [core]2S( 0.51)2p( 1.60)3p( 0.01)
      C   18      [core]2S( 0.49)2p( 1.49)3p( 0.01)
      C   19      [core]2S( 0.44)2p( 1.43)3p( 0.01)
      C   20      [core]2S( 0.51)2p( 1.60)3p( 0.01)
      C   21      [core]2S( 0.51)2p( 1.56)3p( 0.01)
      C   22      [core]2S( 0.44)2p( 1.47)3p( 0.01)
      N   23      [core]2S( 0.69)2p( 2.03)3p( 0.01)
     Fe   24      [core]4S( 0.13)3d( 1.67)4d( 0.01)
      O   25      [core]2S( 0.96)2p( 1.88)
      C   26      [core]2S( 0.49)2p( 1.49)3p( 0.01)
      H   27            1S( 0.37)
      H   28            1S( 0.37)
      H   29            1S( 0.37)
      H   30            1S( 0.37)
      H   31            1S( 0.37)
      H   32            1S( 0.37)
      H   33            1S( 0.37)
      H   34            1S( 0.37)
      H   35            1S( 0.37)
      H   36            1S( 0.37)
      H   37            1S( 0.37)
      H   38            1S( 0.37)


 NBO analysis skipped by request.
 Leave Link  607 at Tue Jul 31 05:26:41 2007, MaxMem=    6291456 cpu:      55.6
 (Enter /software/gaussian/g03_B.4_7.4.2/g03/l9999.exe)

 Test job not archived.
 1\1\GINC-ABACUS3\SP\UOPTXPBE\LANL2DZ\C20H12Fe1N4O1(1+,6)\MADJET\31-Jul
 -2007\0\\#P OPBE/LANL2DZ NOSYMMETRY GFOLDPRINT SCF(TIGHT) POP=(REGULAR
 ,NPA) GFINPUT IOP(6/7=3)\\Test\\1,6\C,0,-0.0041,0.00116,0.00241\C,0,0.
 00051,0.00521,1.45586\N,0,1.32203,0.0058,1.92296\C,0,2.12365,0.01362,0
 .80155\C,0,1.31218,0.00515,-0.40273\C,0,-1.12822,-0.00806,2.27075\C,0,
 -1.15119,-0.02771,3.6899\N,0,-0.02977,-0.02892,4.49157\C,0,-0.49682,-0
 .0521,5.8129\C,0,-1.95006,-0.0772,5.8172\C,0,-2.35522,-0.06328,4.501\C
 ,0,0.3182,-0.06746,6.94151\C,0,1.73749,-0.06732,6.96444\N,0,2.53911,-0
 .04353,5.84322\C,0,3.86062,-0.05388,6.31022\C,0,3.86527,-0.09673,7.763
 03\C,0,2.54899,-0.10629,8.16809\C,0,4.98935,-0.04348,5.49528\C,0,5.012
 25,-0.02595,4.07612\C,0,6.21633,-0.03781,3.26441\C,0,5.81118,-0.01843,
 1.94827\C,0,4.3579,0.00341,1.95319\N,0,3.8908,-0.00878,3.27466\Fe,0,1.
 93007,0.35931,3.88799\O,0,1.92799,1.99312,3.90762\C,0,3.54292,0.01586,
 0.82452\H,0,-2.57322,-0.10757,6.70483\H,0,-3.36986,-0.07918,4.11742\H,
 0,-0.18219,-0.08791,7.91007\H,0,4.75323,-0.12229,8.38594\H,0,6.43438,-
 0.02439,1.06018\H,0,-0.89202,-0.00956,-0.62097\H,0,2.16566,-0.13997,9.
 18239\H,0,7.23102,-0.06137,3.64748\H,0,1.69554,-0.00066,-1.41756\H,0,5
 .9581,-0.05623,5.99556\H,0,4.04336,0.02204,-0.14422\H,0,-2.09694,-0.00
 955,1.77025\\Version=SGI64-G03RevB.04\HF=-1186.4988411\S2=8.822489\S2-
 1=0.\S2A=8.750781\RMSD=6.649e-09\Dipole=0.0011036,-0.927796,-0.0114439
 \PG=C01 [X(C20H12Fe1N4O1)]\\@


 IT IS UNWORTHY OF EXCELLENT MEN TO LOSE HOURS LIKE SLAVES IN THE LABOR
 OF CALCULATION WHICH COULD BE SAFELY RELEGATED TO ANYONE ELSE
 IF A MACHINE WERE USED.
    -- G.W. VON LEIBNIZ
 Job cpu time:  0 days  1 hours  9 minutes 10.1 seconds.
 File lengths (MBytes):  RWF=     85 Int=      0 D2E=      0 Chk=     13 Scr=      1
 Normal termination of Gaussian 03 at Tue Jul 31 05:26:42 2007.
