
 Distributed Data Interface kickoff program.
 Initiating 1 compute processes on 1 nodes to run the following command:
 C:\WinGAMESS/gamess.07.exe GAKB3LYPBromoform631GAllHESS 

          ******************************************************
          *         GAMESS VERSION = 24 MAR 2007 (R1)          *
          *             FROM IOWA STATE UNIVERSITY             *
          * M.W.SCHMIDT, K.K.BALDRIDGE, J.A.BOATZ, S.T.ELBERT, *
          *   M.S.GORDON, J.H.JENSEN, S.KOSEKI, N.MATSUNAGA,   *
          *          K.A.NGUYEN, S.J.SU, T.L.WINDUS,           *
          *       TOGETHER WITH M.DUPUIS, J.A.MONTGOMERY       *
          *         J.COMPUT.CHEM.  14, 1347-1363(1993)        *
          ******************* WINDOWS VERSION ******************

     SINCE 1993, STUDENTS AND POSTDOCS WORKING AT IOWA STATE UNIVERSITY
     AND ALSO IN THEIR VARIOUS JOBS AFTER LEAVING ISU HAVE MADE IMPORTANT
     CONTRIBUTIONS TO THE CODE:
     IVANA ADAMOVIC, CHRISTINE AIKENS, YURI ALEXEEV, POOJA ARORA, ROB BELL,
     PRADIPTA BANDYOPADHYAY, JONATHAN BENTZ, BRETT BODE, GALINA CHABAN,
     WEI CHEN, CHEOL HO CHOI, PAUL DAY, TIM DUDLEY, DMITRI FEDOROV,
     GRAHAM FLETCHER, MARK FREITAG, KURT GLAESEMANN, GRANT MERRILL,
     TAKESHI NAGATA, HEATHER NETZLOFF, BOSILJKA NJEGIC, RYAN OLSON,
     MIKE PAK, JIM SHOEMAKER, LYUDMILA SLIPCHENKO, JIE SONG,
     TETSUYA TAKETSUGU, SIMON WEBB.

     ADDITIONAL CODE HAS BEEN PROVIDED BY COLLABORATORS IN OTHER GROUPS:
     IOWA STATE UNIVERSITY: JOE IVANIC, KLAUS RUEDENBERG
     UNIVERSITY OF TOKYO: KIMIHIKO HIRAO, HARUYUKI NAKANO, TAKAHITO
          NAKAJIMA, TAKAO TSUNEDA, MUNEAKI KAMIYA, SUSUMU YANAGISAWA,
          KIYOSHI YAGI, MAHITO CHIBA, SEIKEN TOKURA, NAOAKI KAWAKAMI
     UNIVERSITY OF SOUTHERN DENMARK: FRANK JENSEN
     UNIVERSITY OF IOWA: VISVALDAS KAIRYS, HUI LI
     NATIONAL INST. OF STANDARDS AND TECHNOLOGY: WALT STEVENS, DAVID GARMER
     UNIVERSITY OF PISA: BENEDETTA MENNUCCI, JACOPO TOMASI
     UNIVERSITY OF MEMPHIS: HENRY KURTZ, PRAKASHAN KORAMBATH
     UNIVERSITY OF ALBERTA: MARIUSZ KLOBUKOWSKI
     UNIVERSITY OF NEW ENGLAND: MARK SPACKMAN
     MIE UNIVERSITY: HIROAKI UMEDA
     MICHIGAN STATE UNIVERSITY:
          KAROL KOWALSKI, MARTA WLOCH, PIOTR PIECUCH
     UNIVERSITY OF SILESIA: MONIKA MUSIAL, STANISLAW KUCHARSKI
     FACULTES UNIVERSITAIRES NOTRE-DAME DE LA PAIX:
          OLIVIER QUINET, BENOIT CHAMPAGNE
     UNIVERSITY OF CALIFORNIA - SANTA BARBARA: BERNARD KIRTMAN
     INSTITUTE FOR MOLECULAR SCIENCE: KAZUYA ISHIMURA AND SHIGERU NAGASE
     UNIVERSITY OF NOTRE DAME: DAN CHIPMAN
     KYUSHU UNIVERSITY:
          FENG LONG GU, JACEK KORCHOWIEC, MARCIN MAKOWSKI, AND YURIKO AOKI
     PENNSYLVANIA STATE UNIVERSITY:
          TZVETELIN IORDANOV, CHET SWALINA, SHARON HAMMES-SCHIFFER

 EXECUTION OF GAMESS BEGUN Sun Jun 17 10:39:09 2007

            ECHO OF THE FIRST FEW INPUT CARDS -
 INPUT CARD> $CONTRL SCFTYP=RHF DFTTYP=B3LYP RUNTYP=HESSIAN MAXIT=100 COORD=ZMT             
 INPUT CARD>EXETYP=RUN $END                                                                 
 INPUT CARD> $STATPT NSTEP=200 $END                                                         
 INPUT CARD> $SYSTEM MWORDS=100 TIMLIM=6000000 $END                                         
 INPUT CARD> $BASIS GBASIS=N31 NGAUSS=6 $END                                                
 INPUT CARD> $DATA                                                                          
 INPUT CARD>First trial of bromoform optimisation 6-31G for all                             
 INPUT CARD>Cnv 3                                                                           
 INPUT CARD>                                                                                
 INPUT CARD> H                                                                              
 INPUT CARD> C      1   1.0831561                                                           
 INPUT CARD> BR     2   1.9933985  1   106.9212592                                          
 INPUT CARD> BR     2   1.9933985  1   106.9212592  3   120.0000000  0                      
 INPUT CARD> BR     2   1.9933985  1   106.9212592  3  -120.0000000  0                      
 INPUT CARD> $END                                                                           
 INPUT CARD>! $ZMAT  IZMAT(1)=1    2   1                                                    
 INPUT CARD>!1    5   2                                                                     
 INPUT CARD>!2    5   2   1                                                                 
 INPUT CARD>!1    3   2                                                                     
 INPUT CARD>!2    3   2   1                                                                 
 INPUT CARD>!3    3   2   1   5                                                             
 INPUT CARD>!1    4   2                                                                     
 INPUT CARD>!2    4   2   1                                                                 
 INPUT CARD>!3    4   2   1   5 $END                                                        
 INPUT CARD>! $FORCE  NVIB=2 PURIFY=.TRUE. PRTIFC=.TRUE. VIBANL=.TRUE. DECOMP=.TRUE.  $END  
  100000000 WORDS OF MEMORY AVAILABLE

     BASIS OPTIONS
     -------------
     GBASIS=N31          IGAUSS=       6      POLAR=NONE    
     NDFUNC=       0     NFFUNC=       0     DIFFSP=       F
     NPFUNC=       0      DIFFS=       F

     GRID-BASED DFT OPTIONS
     ----------------------
     DFTTYP=B3LYP        QOP   =   0.000     PFTYP =NONE    
     NRAD  =      96     NTHE  =      12     NPHI  =      24
     NRAD0 =      96     NTHE0 =      12     NPHI0 =      24
      SWOFF=    5.00E-03 (PURE SCF -> DFT)
     SWITCH=    3.00E-04 (COARSE -> TIGHT GRID)
     THRESH=    0.00E+00 GTHRE=    1.00E+00


     RUN TITLE
     ---------
 First trial of bromoform optimisation 6-31G for all                             

 THE POINT GROUP OF THE MOLECULE IS CNV     
 THE ORDER OF THE PRINCIPAL AXIS IS     3

 YOUR FULLY SUBSTITUTED Z-MATRIX IS
 H   
 C      1   1.0831561
 BR     2   1.9933985  1  106.9213
 BR     2   1.9933985  1  106.9213  3  120.0000  0
 BR     2   1.9933985  1  106.9213  3 -120.0000  0

 THE MOMENTS OF INERTIA ARE (AMU-ANGSTROM**2)
 IXX=   437.069   IYY=   437.069   IZZ=   861.081

 ATOM      ATOMIC                      COORDINATES (BOHR)
           CHARGE         X                   Y                   Z
 H           1.0     0.0000000000        0.0000000000       -3.0779129766
 C           6.0     0.0000000000        0.0000000000       -1.0310447457
 BR         35.0    -1.8019440752        3.1210586906        0.0653609898
 BR         35.0    -1.8019440752       -3.1210586906        0.0653609898
 BR         35.0     3.6038881503        0.0000000000        0.0653609898

          INTERNUCLEAR DISTANCES (ANGS.)
          ------------------------------

                1 H          2 C          3 BR         4 BR         5 BR    

   1 H       0.0000000    1.0831561 *  2.5305620 *  2.5305620 *  2.5305620 *
   2 C       1.0831561 *  0.0000000    1.9933985 *  1.9933985 *  1.9933985 *
   3 BR      2.5305620 *  1.9933985 *  0.0000000    3.3031865    3.3031865  
   4 BR      2.5305620 *  1.9933985 *  3.3031865    0.0000000    3.3031865  
   5 BR      2.5305620 *  1.9933985 *  3.3031865    3.3031865    0.0000000  

  * ... LESS THAN  3.000


     ATOMIC BASIS SET
     ----------------
 THE CONTRACTED PRIMITIVE FUNCTIONS HAVE BEEN UNNORMALIZED
 THE CONTRACTED BASIS FUNCTIONS ARE NOW NORMALIZED TO UNITY

  SHELL TYPE  PRIMITIVE        EXPONENT          CONTRACTION COEFFICIENT(S)

 H         

      1   S       1            18.7311370    0.033494604338
      1   S       2             2.8253944    0.234726953484
      1   S       3             0.6401217    0.813757326146

      2   S       4             0.1612778    1.000000000000

 C         

      3   S       5          3047.5248800    0.001834737132
      3   S       6           457.3695180    0.014037322813
      3   S       7           103.9486850    0.068842622264
      3   S       8            29.2101553    0.232184443216
      3   S       9             9.2866630    0.467941348435
      3   S      10             3.1639270    0.362311985337

      4   L      11             7.8682723   -0.119332419775    0.068999066591
      4   L      12             1.8812885   -0.160854151696    0.316423960957
      4   L      13             0.5442493    1.143456437840    0.744308290898

      5   L      14             0.1687145    1.000000000000    1.000000000000

 BR        

     20   S      15        113718.2000000    0.001717696020
     20   S      16         17074.4400000    0.013167440157
     20   S      17          3889.5760000    0.065045530775
     20   S      18          1097.0960000    0.226950502703
     20   S      19           352.0624000    0.476835705678
     20   S      20           120.7002000    0.358367704268

     21   L      21          2471.1380000    0.002243686934    0.003790181843
     21   L      22           589.3838000    0.029948529125    0.029959788758
     21   L      23           191.8738000    0.125600896330    0.131822794533
     21   L      24            72.9533900   -0.000983278571    0.343270785764
     21   L      25            30.0583900   -0.601314082428    0.464234480747
     21   L      26            12.5292700   -0.491398285640    0.207938691376

     22   L      27           109.6411000   -0.005975683203   -0.006907482641
     22   L      28            38.5894800    0.055421221885   -0.030414318419
     22   L      29            16.3781800    0.268120009121    0.046027247607
     22   L      30             7.2218360   -0.154360605251    0.365068881019
     22   L      31             3.2636970   -0.720630624515    0.494923174267
     22   L      32             1.4654990   -0.331643711282    0.209039389131

     23   L      33             2.1036510    0.302902925312   -0.028267138833
     23   L      34             0.7547050   -0.215265917988    0.350306485538
     23   L      35             0.3005140   -0.963394180505    0.718244570349

     24   L      36             0.1090710    1.000000000000    1.000000000000

     25   D      37            62.2551400    0.077042284602
     25   D      38            17.3128400    0.370738374024
     25   D      39             5.6079150    0.709762750271

     26   D      40             1.7464860    1.000000000000

 TOTAL NUMBER OF BASIS SET SHELLS             =   26
 NUMBER OF CARTESIAN GAUSSIAN BASIS FUNCTIONS =   98
 NUMBER OF ELECTRONS                          =  112
 CHARGE OF MOLECULE                           =    0
 SPIN MULTIPLICITY                            =    1
 NUMBER OF OCCUPIED ORBITALS (ALPHA)          =   56
 NUMBER OF OCCUPIED ORBITALS (BETA )          =   56
 TOTAL NUMBER OF ATOMS                        =    5
 THE NUCLEAR REPULSION ENERGY IS      780.8737256562

     $NEO OPTIONS
     ------------
     NUNIQN=       0     BASNUC=DZSNB        NEOSCF=NONE    
     NEOCI =NONE         NUMULT=       2     NUCST =       1
     NAUXNB=       0     VNUCEX=       F     NEOOPT=       F
     NTAUXB=       0     NEOHSS=       F     HSSINI=READH   
     HSSUPD=POWELLUP     DIRNUC=       F     SYMNUC=       F
     QMTOLN= 0.0E+00     USRDEX=       F
     POSNEO=       F     POSPRP=       F

     $CONTRL OPTIONS
     ---------------
 SCFTYP=RHF          RUNTYP=HESSIAN      EXETYP=RUN     
 MPLEVL=       0     CITYP =NONE         CCTYP =NONE         VBTYP =NONE    
 DFTTYP=B3LYP        TDDFT =NONE    
 MULT  =       1     ICHARG=       0     NZVAR =       0     COORD =ZMT     
 PP    =NONE         RELWFN=NONE         LOCAL =NONE         NUMGRD=       F
 ISPHER=      -1     NOSYM =       0     MAXIT =     100     UNITS =ANGS    
 PLTORB=       F     MOLPLT=       F     AIMPAC=       F     FRIEND=        
 NPRINT=       7     IREST =       0     GEOM  =INPUT   
 NORMF =       0     NORMP =       0     ITOL  =      20     ICUT  =       9
 INTTYP=BEST         GRDTYP=BEST         QMTTOL= 1.0E-06

     $SYSTEM OPTIONS
     ---------------
  REPLICATED MEMORY=   100000000 WORDS (ON EVERY NODE).
 DISTRIBUTED MEMDDI=           0 MILLION WORDS IN AGGREGATE,
 MEMDDI DISTRIBUTED OVER   1 PROCESSORS IS           0 WORDS/PROCESSOR.
 TOTAL MEMORY REQUESTED ON EACH PROCESSOR=   100000000 WORDS.
 TIMLIM=     6000000.00 MINUTES, OR  4166.67 DAYS.
 PARALL= F  BALTYP=  NXTVAL  KDIAG=    0  COREFL= F

          ----------------
          PROPERTIES INPUT
          ----------------

     MOMENTS            FIELD           POTENTIAL          DENSITY
 IEMOM =       1   IEFLD =       0   IEPOT =       0   IEDEN =       0
 WHERE =COMASS     WHERE =NUCLEI     WHERE =NUCLEI     WHERE =NUCLEI  
 OUTPUT=BOTH       OUTPUT=BOTH       OUTPUT=BOTH       OUTPUT=BOTH    
 IEMINT=       0   IEFINT=       0                     IEDINT=       0
                                                       MORB  =       0
          EXTRAPOLATION IN EFFECT
          DIIS IN EFFECT
 ORBITAL PRINTING OPTION: NPREO=   1  98   2   1

     -------------------------------
     INTEGRAL TRANSFORMATION OPTIONS
     -------------------------------
     NWORD  =         0     CUTOFF = 1.0E-09
     MPTRAN =         0     DIRTRF =       F
     AOINTS =DUP     

          ----------------------
          INTEGRAL INPUT OPTIONS
          ----------------------
 NOPK  =       1 NORDER=       0 SCHWRZ=       F

     ------------------------------------------
     THE POINT GROUP IS CNV, NAXIS= 3, ORDER= 6
     ------------------------------------------

     DIMENSIONS OF THE SYMMETRY SUBSPACES ARE
 A1  =   28     A2  =    8     E   =   31

 ..... DONE SETTING UP THE RUN .....
 STEP CPU TIME =     0.03 TOTAL CPU TIME =        0.0 (    0.0 MIN)
 TOTAL WALL CLOCK TIME=        0.0 SECONDS, CPU UTILIZATION IS 100.00%

     ---------------------------------
     HESSIAN MATRIX CONTROL PARAMETERS
     ---------------------------------
     METHOD=SEMINUM    NVIB  =       1   VIBSIZ= 0.01000
     RDHESS=       F   PURIFY=       F   PRTIFC=       F
     VIBANL=       T   DECOMP=       F   PROJCT=       F
     SCLFAC= 1.00000   PRTSCN=       F   NPRT  =       0
     PULCOR=       F   NPUN  =       0   REDOVB=       T
     THERMOCHEMISTRY WILL BE PRINTED FOR    1 TEMPERATURES:
      298.15000
1   ATOM  0
                                        -------------------
   COORD  0                             NUCLEAR COORDINATES
                                        -------------------
     VIB  0

                       ATOM             X              Y              Z

                 1  H                0.000000       0.000000      -3.077913
                 2  C                0.000000       0.000000      -1.031045
                 3  BR              -1.801944       3.121059       0.065361
                 4  BR              -1.801944      -3.121059       0.065361
                 5  BR               3.603888       0.000000       0.065361

          ********************
          1 ELECTRON INTEGRALS
          ********************
 ...... END OF ONE-ELECTRON INTEGRALS ......
 STEP CPU TIME =     0.02 TOTAL CPU TIME =        0.0 (    0.0 MIN)
 TOTAL WALL CLOCK TIME=        0.0 SECONDS, CPU UTILIZATION IS  97.87%

          -------------
          GUESS OPTIONS
          -------------
          GUESS =HUCKEL            NORB  =       0          NORDER=       0
          MIX   =       F          PRTMO =       F          PUNMO =       F
          TOLZ  = 1.0E-08          TOLE  = 1.0E-05
          SYMDEN=       F          PURIFY=       F

 INITIAL GUESS ORBITALS GENERATED BY HUCKEL   ROUTINE.
 HUCKEL GUESS REQUIRES     90517 WORDS.

 SYMMETRIES FOR INITIAL GUESS ORBITALS FOLLOW.   BOTH SET(S).
    56 ORBITALS ARE OCCUPIED (   43 CORE ORBITALS).
    44=?A1     45=?E      46=?E      47=?A1     48=?A1     49=?E      50=?E  
    51=?E      52=?E      53=?A1     54=?E      55=?E      56=?A2     57=?A1 
    58=?E      59=?E      60=?A1     61=A1      62=?A1     63=?A1     64=?A1 
    65=?A1     66=?A1 
 ...... END OF INITIAL ORBITAL SELECTION ......
 STEP CPU TIME =     0.23 TOTAL CPU TIME =        0.3 (    0.0 MIN)
 TOTAL WALL CLOCK TIME=        0.3 SECONDS, CPU UTILIZATION IS 100.00%

                    ----------------------
                    AO INTEGRAL TECHNOLOGY
                    ----------------------
     S,P,L SHELL ROTATED AXIS INTEGRALS, REPROGRAMMED BY
        KAZUYA ISHIMURA (IMS) AND JOSE SIERRA (SYNSTAR).
     S,P,D,L SHELL ROTATED AXIS INTEGRALS PROGRAMMED BY
        KAZUYA ISHIMURA (INSTITUTE FOR MOLECULAR SCIENCE).
     S,P,D,F,G SHELL TO TOTAL QUARTET ANGULAR MOMENTUM SUM 5,
        ERIC PROGRAM BY GRAHAM FLETCHER (ELORET AND NASA ADVANCED
        SUPERCOMPUTING DIVISION, AMES RESEARCH CENTER).
     S,P,D,F,G,L SHELL GENERAL RYS QUADRATURE PROGRAMMED BY
        MICHEL DUPUIS (PACIFIC NORTHWEST NATIONAL LABORATORY).

          --------------------
          2 ELECTRON INTEGRALS
          --------------------

 THE -PK- OPTION IS OFF, THE INTEGRALS ARE NOT IN SUPERMATRIX FORM.
 STORING   15000 INTEGRALS/RECORD ON DISK, USING 12 BYTES/INTEGRAL.
 TWO ELECTRON INTEGRAL EVALUATION REQUIRES   90747 WORDS OF MEMORY.
 II,JST,KST,LST =  1  1  1  1 NREC =         1 INTLOC =    1
 II,JST,KST,LST =  2  1  1  1 NREC =         1 INTLOC =    2
 II,JST,KST,LST =  3  1  1  1 NREC =         1 INTLOC =    7
 II,JST,KST,LST =  4  1  1  1 NREC =         1 INTLOC =   22
 II,JST,KST,LST =  5  1  1  1 NREC =         1 INTLOC =  169
 II,JST,KST,LST =  6  1  1  1 NREC =         1 INTLOC =  678
 II,JST,KST,LST =  7  1  1  1 NREC =         1 INTLOC =  678
 II,JST,KST,LST =  8  1  1  1 NREC =         1 INTLOC =  678
 II,JST,KST,LST =  9  1  1  1 NREC =         1 INTLOC =  678
 II,JST,KST,LST = 10  1  1  1 NREC =         1 INTLOC =  678
 II,JST,KST,LST = 11  1  1  1 NREC =         1 INTLOC =  678
 II,JST,KST,LST = 12  1  1  1 NREC =         1 INTLOC =  678
 II,JST,KST,LST = 13  1  1  1 NREC =         1 INTLOC =  678
 II,JST,KST,LST = 14  1  1  1 NREC =         1 INTLOC =  678
 II,JST,KST,LST = 15  1  1  1 NREC =         1 INTLOC =  678
 II,JST,KST,LST = 16  1  1  1 NREC =         1 INTLOC =  678
 II,JST,KST,LST = 17  1  1  1 NREC =         1 INTLOC =  678
 II,JST,KST,LST = 18  1  1  1 NREC =         1 INTLOC =  678
 II,JST,KST,LST = 19  1  1  1 NREC =         1 INTLOC =  678
 II,JST,KST,LST = 20  1  1  1 NREC =         1 INTLOC =  678
 II,JST,KST,LST = 21  1  1  1 NREC =         1 INTLOC = 1199
 II,JST,KST,LST = 22  1  1  1 NREC =         1 INTLOC = 5943
 II,JST,KST,LST = 23  1  1  1 NREC =         2 INTLOC = 3832
 II,JST,KST,LST = 24  1  1  1 NREC =         5 INTLOC = 7737
 II,JST,KST,LST = 25  1  1  1 NREC =        13 INTLOC = 3461
 II,JST,KST,LST = 26  1  1  1 NREC =        26 INTLOC = 1481
 TOTAL NUMBER OF NONZERO TWO-ELECTRON INTEGRALS =              697923
         47 INTEGRAL RECORDS WERE STORED ON DISK FILE  8.
  ...... END OF TWO-ELECTRON INTEGRALS .....
 STEP CPU TIME =     0.58 TOTAL CPU TIME =        0.9 (    0.0 MIN)
 TOTAL WALL CLOCK TIME=        0.9 SECONDS, CPU UTILIZATION IS  93.17%

          --------------------------
             R-B3LYP SCF CALCULATION
          --------------------------

     NUCLEAR ENERGY =       780.8737256562
     MAXIT =  100     NPUNCH=    2
     EXTRAP=T  DAMP=F  SHIFT=F  RSTRCT=F  DIIS=T  DEM=F  SOSCF=F
           DENSITY MATRIX CONV=  1.00E-05
     DFT GRID SWITCH THRESHOLD=  3.00E-04
      DFT SWITCH OFF THRESHOLD=  5.00E-03
     MEMORY REQUIRED FOR RHF STEP=    294960 WORDS.

     EXCHANGE FUNCTIONAL   =B88&HFX   
     CORRELATION FUNCTIONAL=LYP88&VWN5
     DFT THRESHOLD         =.723E-08
 DFT IS SWITCHED OFF, PERFORMING PURE SCF UNTIL SWOFF THRESHOLD IS REACHED.

 ITER EX DEM     TOTAL ENERGY        E CHANGE  DENSITY CHANGE    DIIS ERROR
   1  0  0    -7754.0625241793 -7754.0625241793   0.479263500   1.973652340
          * * *   INITIATING DIIS PROCEDURE   * * *
   2  1  0    -7754.5128765898    -0.4503524105   0.117996263   0.097505618
   3  2  0    -7754.5373041652    -0.0244275754   0.050196498   0.048713705
   4  3  0    -7754.5495916439    -0.0122874787   0.014354952   0.008018210
   5  4  0    -7754.5501752500    -0.0005836062   0.005908526   0.004722137
   6  5  0    -7754.5502662846    -0.0000910345   0.001046336   0.000482570
 CONVERGED TO SWOFF, SO DFT CALCULATION IS NOW SWITCHED ON.
          * * *   INITIATING DIIS PROCEDURE   * * *
   7  6  0    -7759.6451403413    -5.0948740568   0.090768619   0.382006041
   8  7  0    -7759.6638126459    -0.0186723046   0.082579482   0.027248957
   9  8  0    -7759.6522283059     0.0115843400   0.057867808   0.049381912
  10  9  0    -7759.6692333475    -0.0170050417   0.010429790   0.007907467
  11 10  0    -7759.6696497672    -0.0004164197   0.000612526   0.000257836
  12 11  0    -7759.6696501624    -0.0000003952   0.000184496   0.000124475
  13 12  0    -7759.6696502381    -0.0000000757   0.000013905   0.000012625
  14 13  0    -7759.6696502394    -0.0000000013   0.000003489   0.000002138
  15 14  0    -7759.6696502394    -0.0000000001   0.000000318   0.000000062

          -----------------
          DENSITY CONVERGED
          -----------------
     TIME TO FORM FOCK OPERATORS=      28.4 SECONDS (       1.9 SEC/ITER)
     TIME TO SOLVE SCF EQUATIONS=       0.3 SECONDS (       0.0 SEC/ITER)

 FINAL R-B3LYP ENERGY IS    -7759.6696502394 AFTER  15 ITERATIONS
 DFT EXCHANGE + CORRELATION ENERGY =      -224.5603339940
 TOTAL ELECTRON NUMBER             =       112.0000669376

          ------------
          EIGENVECTORS
          ------------

                      1          2          3          4          5
                 -482.8314  -482.8314  -482.8314   -62.4869   -62.4869
                     A1         E          E          E          E   
    1  H  1  S    0.000004   0.000000   0.000000   0.000000   0.000000
    2  H  1  S    0.000021   0.000000   0.000000   0.000000   0.000000
    3  C  2  S    0.000004   0.000000   0.000000   0.000000   0.000000
    4  C  2  S    0.000014   0.000000   0.000000   0.000000   0.000000
    5  C  2  X    0.000000  -0.000009   0.000000  -0.000003   0.000000
    6  C  2  Y    0.000000   0.000000   0.000009   0.000000   0.000003
    7  C  2  Z   -0.000003   0.000000   0.000000   0.000000   0.000000
    8  C  2  S   -0.000044   0.000000   0.000000   0.000000   0.000000
    9  C  2  X    0.000000   0.000000   0.000000   0.000004   0.000000
   10  C  2  Y    0.000000   0.000000   0.000000   0.000000  -0.000004
   11  C  2  Z    0.000002   0.000000   0.000000   0.000000   0.000000
   12  BR 3  S    0.574442  -0.406192  -0.703545  -0.127335  -0.220550
   13  BR 3  S   -0.011691   0.008266   0.014318  -0.419551  -0.726684
   14  BR 3  X    0.000002  -0.000001  -0.000002   0.000230   0.000398
   15  BR 3  Y   -0.000003   0.000002   0.000003  -0.000398  -0.000689
   16  BR 3  Z   -0.000001   0.000001   0.000001  -0.000159  -0.000275
   17  BR 3  S   -0.017437   0.012329   0.021354   0.009769   0.016920
   18  BR 3  X   -0.000001   0.000001   0.000001   0.000013   0.000021
   19  BR 3  Y    0.000002  -0.000001  -0.000002  -0.000021  -0.000037
   20  BR 3  Z    0.000001   0.000000   0.000000  -0.000008  -0.000015
   21  BR 3  S   -0.000256   0.000185   0.000321   0.000103   0.000178
   22  BR 3  X    0.000004  -0.000002  -0.000002  -0.000007  -0.000007
   23  BR 3  Y   -0.000006   0.000002   0.000004   0.000007   0.000016
   24  BR 3  Z   -0.000002   0.000000   0.000000   0.000002   0.000004
   25  BR 3  S   -0.000062   0.000060   0.000103   0.000042   0.000073
   26  BR 3  X    0.000002   0.000010   0.000002   0.000014   0.000007
   27  BR 3  Y   -0.000003  -0.000002  -0.000013  -0.000007  -0.000021
   28  BR 3  Z    0.000001   0.000000   0.000001  -0.000001  -0.000002
   29  BR 3 XX   -0.008429   0.005959   0.010322   0.008146   0.014110
   30  BR 3 YY   -0.008429   0.005959   0.010321   0.008167   0.014146
   31  BR 3 ZZ   -0.008429   0.005959   0.010322   0.008139   0.014097
   32  BR 3 XY    0.000000   0.000000   0.000000  -0.000021  -0.000036
   33  BR 3 XZ    0.000000   0.000000   0.000000  -0.000007  -0.000012
   34  BR 3 YZ    0.000000   0.000000   0.000000   0.000012   0.000020
   35  BR 3 XX   -0.001562   0.001105   0.001913   0.000783   0.001356
   36  BR 3 YY   -0.001562   0.001104   0.001913   0.000778   0.001348
   37  BR 3 ZZ   -0.001563   0.001104   0.001913   0.000785   0.001359
   38  BR 3 XY   -0.000001   0.000000   0.000000   0.000005   0.000009
   39  BR 3 XZ    0.000000   0.000000   0.000000   0.000002   0.000003
   40  BR 3 YZ    0.000000   0.000000   0.000000  -0.000003  -0.000005
   41  BR 4  S    0.574442  -0.406192   0.703545  -0.127335   0.220550
   42  BR 4  S   -0.011691   0.008266  -0.014318  -0.419551   0.726684
   43  BR 4  X    0.000002  -0.000001   0.000002   0.000230  -0.000398
   44  BR 4  Y    0.000003  -0.000002   0.000003   0.000398  -0.000689
   45  BR 4  Z   -0.000001   0.000001  -0.000001  -0.000159   0.000275
   46  BR 4  S   -0.017437   0.012329  -0.021354   0.009769  -0.016920
   47  BR 4  X   -0.000001   0.000001  -0.000001   0.000013  -0.000021
   48  BR 4  Y   -0.000002   0.000001  -0.000002   0.000021  -0.000037
   49  BR 4  Z    0.000001   0.000000   0.000000  -0.000008   0.000015
   50  BR 4  S   -0.000256   0.000185  -0.000321   0.000103  -0.000178
   51  BR 4  X    0.000004  -0.000002   0.000002  -0.000007   0.000007
   52  BR 4  Y    0.000006  -0.000002   0.000004  -0.000007   0.000016
   53  BR 4  Z   -0.000002   0.000000   0.000000   0.000002  -0.000004
   54  BR 4  S   -0.000062   0.000060  -0.000103   0.000042  -0.000073
   55  BR 4  X    0.000002   0.000010  -0.000002   0.000014  -0.000007
   56  BR 4  Y    0.000003   0.000002  -0.000013   0.000007  -0.000021
   57  BR 4  Z    0.000001   0.000000  -0.000001  -0.000001   0.000002
   58  BR 4 XX   -0.008429   0.005959  -0.010322   0.008146  -0.014110
   59  BR 4 YY   -0.008429   0.005959  -0.010321   0.008167  -0.014146
   60  BR 4 ZZ   -0.008429   0.005959  -0.010322   0.008139  -0.014097
   61  BR 4 XY    0.000000   0.000000   0.000000   0.000021  -0.000036
   62  BR 4 XZ    0.000000   0.000000   0.000000  -0.000007   0.000012
   63  BR 4 YZ    0.000000   0.000000   0.000000  -0.000012   0.000020
   64  BR 4 XX   -0.001562   0.001105  -0.001913   0.000783  -0.001356
   65  BR 4 YY   -0.001562   0.001104  -0.001913   0.000778  -0.001348
   66  BR 4 ZZ   -0.001563   0.001104  -0.001913   0.000785  -0.001359
   67  BR 4 XY    0.000001   0.000000   0.000000  -0.000005   0.000009
   68  BR 4 XZ    0.000000   0.000000   0.000000   0.000002  -0.000003
   69  BR 4 YZ    0.000000   0.000000   0.000000   0.000003  -0.000005
   70  BR 5  S    0.574442   0.812384   0.000000   0.254669   0.000000
   71  BR 5  S   -0.011691  -0.016533   0.000000   0.839102   0.000000
   72  BR 5  X   -0.000004  -0.000005   0.000000   0.000918   0.000000
   73  BR 5  Y    0.000000   0.000000   0.000000   0.000000   0.000000
   74  BR 5  Z   -0.000001  -0.000001   0.000000   0.000317   0.000000
   75  BR 5  S   -0.017437  -0.024657   0.000000  -0.019537   0.000000
   76  BR 5  X    0.000003   0.000002   0.000000   0.000049   0.000000
   77  BR 5  Y    0.000000   0.000000   0.000000   0.000000   0.000000
   78  BR 5  Z    0.000001   0.000001   0.000000   0.000017   0.000000
   79  BR 5  S   -0.000256  -0.000370   0.000000  -0.000205   0.000000
   80  BR 5  X   -0.000007  -0.000005   0.000000  -0.000020   0.000000
   81  BR 5  Y    0.000000   0.000000   0.000001   0.000000   0.000003
   82  BR 5  Z   -0.000002   0.000000   0.000000  -0.000005   0.000000
   83  BR 5  S   -0.000062  -0.000119   0.000000  -0.000085   0.000000
   84  BR 5  X   -0.000003   0.000014   0.000000   0.000025   0.000000
   85  BR 5  Y    0.000000   0.000000  -0.000009   0.000000  -0.000010
   86  BR 5  Z    0.000001  -0.000001   0.000000   0.000003   0.000000
   87  BR 5 XX   -0.008429  -0.011918   0.000000  -0.016355   0.000000
   88  BR 5 YY   -0.008429  -0.011918   0.000000  -0.016272   0.000000
   89  BR 5 ZZ   -0.008429  -0.011919   0.000000  -0.016278   0.000000
   90  BR 5 XY    0.000000   0.000000   0.000000   0.000000   0.000000
   91  BR 5 XZ    0.000000   0.000000   0.000000  -0.000027   0.000000
   92  BR 5 YZ    0.000000   0.000000   0.000000   0.000000   0.000000
   93  BR 5 XX   -0.001562  -0.002209   0.000000  -0.001551   0.000000
   94  BR 5 YY   -0.001563  -0.002209   0.000000  -0.001571   0.000000
   95  BR 5 ZZ   -0.001563  -0.002209   0.000000  -0.001569   0.000000
   96  BR 5 XY    0.000000   0.000000   0.000001   0.000000   0.000000
   97  BR 5 XZ    0.000000   0.000000   0.000000   0.000006   0.000000
   98  BR 5 YZ    0.000000   0.000000   0.000000   0.000000   0.000000

                      6          7          8          9         10
                  -62.4869   -56.3092   -56.3092   -56.3092   -56.3042
                     A1         A1         E          E          A2  
    1  H  1  S    0.000001   0.000069   0.000000   0.000000   0.000000
    2  H  1  S    0.000019   0.000402   0.000000   0.000000   0.000000
    3  C  2  S    0.000002   0.000060   0.000000   0.000000   0.000000
    4  C  2  S    0.000013   0.000431   0.000000   0.000000   0.000000
    5  C  2  X    0.000000   0.000000  -0.000043   0.000000   0.000000
    6  C  2  Y    0.000000   0.000000   0.000000  -0.000043   0.000000
    7  C  2  Z    0.000000  -0.000009   0.000000   0.000000   0.000000
    8  C  2  S   -0.000029  -0.000919   0.000000   0.000000   0.000000
    9  C  2  X    0.000000   0.000000  -0.000213   0.000000   0.000000
   10  C  2  Y    0.000000   0.000000   0.000000  -0.000213   0.000000
   11  C  2  Z    0.000002   0.000002   0.000000   0.000000   0.000000
   12  BR 3  S    0.180078  -0.000222   0.000156  -0.000270   0.000000
   13  BR 3  S    0.593336  -0.000765   0.000537  -0.000930   0.000000
   14  BR 3  X   -0.000325  -0.277145   0.195867  -0.339494  -0.498078
   15  BR 3  Y    0.000562   0.480029  -0.339494   0.587881  -0.287566
   16  BR 3  Z    0.000224   0.153357  -0.108449   0.187839   0.000000
   17  BR 3  S   -0.013808  -0.000260   0.000147  -0.000255   0.000000
   18  BR 3  X   -0.000018  -0.002908   0.002045  -0.003552  -0.005181
   19  BR 3  Y    0.000031   0.005038  -0.003552   0.006147  -0.002991
   20  BR 3  Z    0.000012   0.001608  -0.001133   0.001963   0.000000
   21  BR 3  S   -0.000134  -0.000119   0.000122  -0.000211   0.000000
   22  BR 3  X    0.000007   0.000604  -0.000403   0.000701   0.001003
   23  BR 3  Y   -0.000012  -0.001045   0.000701  -0.001212   0.000579
   24  BR 3  Z   -0.000005  -0.000334   0.000216  -0.000375   0.000000
   25  BR 3  S   -0.000036   0.000140   0.000116  -0.000201   0.000000
   26  BR 3  X   -0.000001  -0.000196   0.000315  -0.000300  -0.000563
   27  BR 3  Y    0.000002   0.000340  -0.000300   0.000661  -0.000325
   28  BR 3  Z    0.000004   0.000147  -0.000077   0.000134   0.000000
   29  BR 3 XX   -0.011519  -0.000094   0.000045  -0.000085  -0.000034
   30  BR 3 YY   -0.011548  -0.000136   0.000078  -0.000128   0.000034
   31  BR 3 ZZ   -0.011508  -0.000079   0.000041  -0.000071   0.000000
   32  BR 3 XY    0.000030   0.000042  -0.000025   0.000048   0.000023
   33  BR 3 XZ    0.000009   0.000015  -0.000009   0.000018   0.000014
   34  BR 3 YZ   -0.000016  -0.000025   0.000018  -0.000030   0.000008
   35  BR 3 XX   -0.001106  -0.000066   0.000044  -0.000055   0.000005
   36  BR 3 YY   -0.001098  -0.000043   0.000018  -0.000052  -0.000005
   37  BR 3 ZZ   -0.001109  -0.000077   0.000035  -0.000061   0.000000
   38  BR 3 XY   -0.000008  -0.000024   0.000002  -0.000017  -0.000003
   39  BR 3 XZ   -0.000002  -0.000007   0.000002  -0.000008  -0.000004
   40  BR 3 YZ    0.000004   0.000011  -0.000008   0.000011  -0.000002
   41  BR 4  S    0.180078  -0.000222   0.000156   0.000270   0.000000
   42  BR 4  S    0.593336  -0.000765   0.000537   0.000930   0.000000
   43  BR 4  X   -0.000325  -0.277145   0.195867   0.339494   0.498078
   44  BR 4  Y   -0.000562  -0.480029   0.339494   0.587881  -0.287566
   45  BR 4  Z    0.000224   0.153357  -0.108449  -0.187839   0.000000
   46  BR 4  S   -0.013808  -0.000260   0.000147   0.000255   0.000000
   47  BR 4  X   -0.000018  -0.002908   0.002045   0.003552   0.005181
   48  BR 4  Y   -0.000031  -0.005038   0.003552   0.006147  -0.002991
   49  BR 4  Z    0.000012   0.001608  -0.001133  -0.001963   0.000000
   50  BR 4  S   -0.000134  -0.000119   0.000122   0.000211   0.000000
   51  BR 4  X    0.000007   0.000604  -0.000403  -0.000701  -0.001003
   52  BR 4  Y    0.000012   0.001045  -0.000701  -0.001212   0.000579
   53  BR 4  Z   -0.000005  -0.000334   0.000216   0.000375   0.000000
   54  BR 4  S   -0.000036   0.000140   0.000116   0.000201   0.000000
   55  BR 4  X   -0.000001  -0.000196   0.000315   0.000300   0.000563
   56  BR 4  Y   -0.000002  -0.000340   0.000300   0.000661  -0.000325
   57  BR 4  Z    0.000004   0.000147  -0.000077  -0.000134   0.000000
   58  BR 4 XX   -0.011519  -0.000094   0.000045   0.000085   0.000034
   59  BR 4 YY   -0.011548  -0.000136   0.000078   0.000128  -0.000034
   60  BR 4 ZZ   -0.011508  -0.000079   0.000041   0.000071   0.000000
   61  BR 4 XY   -0.000030  -0.000042   0.000025   0.000048   0.000023
   62  BR 4 XZ    0.000009   0.000015  -0.000009  -0.000018  -0.000014
   63  BR 4 YZ    0.000016   0.000025  -0.000018  -0.000030   0.000008
   64  BR 4 XX   -0.001106  -0.000066   0.000044   0.000055  -0.000005
   65  BR 4 YY   -0.001098  -0.000043   0.000018   0.000052   0.000005
   66  BR 4 ZZ   -0.001109  -0.000077   0.000035   0.000061   0.000000
   67  BR 4 XY    0.000008   0.000024  -0.000002  -0.000017  -0.000003
   68  BR 4 XZ   -0.000002  -0.000007   0.000002   0.000008   0.000004
   69  BR 4 YZ   -0.000004  -0.000011   0.000008   0.000011  -0.000002
   70  BR 5  S    0.180078  -0.000222  -0.000312   0.000000   0.000000
   71  BR 5  S    0.593336  -0.000765  -0.001074   0.000000   0.000000
   72  BR 5  X    0.000649   0.554290   0.783888   0.000000   0.000000
   73  BR 5  Y    0.000000   0.000000   0.000000  -0.000141   0.575131
   74  BR 5  Z    0.000224   0.153357   0.216898   0.000000   0.000000
   75  BR 5  S   -0.013808  -0.000260  -0.000294   0.000000   0.000000
   76  BR 5  X    0.000035   0.005817   0.008198   0.000000   0.000000
   77  BR 5  Y    0.000000   0.000000   0.000000  -0.000006   0.005982
   78  BR 5  Z    0.000012   0.001608   0.002266   0.000000   0.000000
   79  BR 5  S   -0.000134  -0.000119  -0.000243   0.000000   0.000000
   80  BR 5  X   -0.000014  -0.001207  -0.001616   0.000000   0.000000
   81  BR 5  Y    0.000000   0.000000   0.000000   0.000001  -0.001159
   82  BR 5  Z   -0.000005  -0.000334  -0.000433   0.000000   0.000000
   83  BR 5  S   -0.000036   0.000140  -0.000232   0.000000   0.000000
   84  BR 5  X    0.000003   0.000393   0.000834   0.000000   0.000000
   85  BR 5  Y    0.000000   0.000000   0.000000   0.000142   0.000650
   86  BR 5  Z    0.000004   0.000147   0.000154   0.000000   0.000000
   87  BR 5 XX   -0.011563  -0.000157  -0.000177   0.000000   0.000000
   88  BR 5 YY   -0.011504  -0.000073  -0.000070   0.000000   0.000000
   89  BR 5 ZZ   -0.011508  -0.000079  -0.000082   0.000000   0.000000
   90  BR 5 XY    0.000000   0.000000   0.000000   0.000005  -0.000046
   91  BR 5 XZ   -0.000019  -0.000029  -0.000040   0.000000   0.000000
   92  BR 5 YZ    0.000000   0.000000   0.000000   0.000001  -0.000016
   93  BR 5 XX   -0.001095  -0.000031  -0.000046   0.000000   0.000000
   94  BR 5 YY   -0.001110  -0.000078  -0.000078   0.000000   0.000000
   95  BR 5 ZZ   -0.001109  -0.000077  -0.000070   0.000000   0.000000
   96  BR 5 XY    0.000000   0.000000   0.000000  -0.000014   0.000006
   97  BR 5 XZ    0.000005   0.000013   0.000015   0.000000   0.000000
   98  BR 5 YZ    0.000000   0.000000   0.000000  -0.000002   0.000004

                     11         12         13         14         15
                  -56.3042   -56.3042   -56.3042   -56.3042   -56.3042
                     E          E          E          E          A1  
    1  H  1  S    0.000000   0.000000   0.000000   0.000000  -0.000005
    2  H  1  S    0.000000   0.000000   0.000000   0.000000   0.000371
    3  C  2  S    0.000000   0.000000   0.000000   0.000000   0.000002
    4  C  2  S    0.000000   0.000000   0.000000   0.000000   0.000018
    5  C  2  X   -0.000043   0.000000  -0.000004   0.000000   0.000000
    6  C  2  Y    0.000000  -0.000043   0.000000   0.000004   0.000000
    7  C  2  Z    0.000000   0.000000   0.000000   0.000000  -0.000040
    8  C  2  S    0.000000   0.000000   0.000000   0.000000  -0.000126
    9  C  2  X    0.000204   0.000000  -0.000022   0.000000   0.000000
   10  C  2  Y    0.000000   0.000204   0.000000   0.000022   0.000000
   11  C  2  Z    0.000000   0.000000   0.000000   0.000000   0.000212
   12  BR 3  S    0.000000  -0.000001   0.000009   0.000016  -0.000014
   13  BR 3  S    0.000008  -0.000015   0.000028   0.000049  -0.000050
   14  BR 3  X    0.609858   0.352468  -0.056396  -0.092668   0.076681
   15  BR 3  Y    0.352468   0.202864   0.092668   0.163399  -0.132816
   16  BR 3  Z   -0.001413   0.002448  -0.391951  -0.678879   0.554310
   17  BR 3  S    0.000063  -0.000109  -0.000035  -0.000061  -0.000029
   18  BR 3  X    0.006336   0.003664  -0.000586  -0.000964   0.000797
   19  BR 3  Y    0.003664   0.002105   0.000964   0.001699  -0.001380
   20  BR 3  Z   -0.000014   0.000025  -0.004073  -0.007054   0.005755
   21  BR 3  S    0.000087  -0.000151  -0.000044  -0.000076  -0.000040
   22  BR 3  X   -0.001186  -0.000691   0.000116   0.000186  -0.000148
   23  BR 3  Y   -0.000691  -0.000388  -0.000186  -0.000331   0.000256
   24  BR 3  Z    0.000001  -0.000001   0.000767   0.001328  -0.001059
   25  BR 3  S    0.000188  -0.000326  -0.000068  -0.000118  -0.000084
   26  BR 3  X    0.000553   0.000205  -0.000097  -0.000104   0.000036
   27  BR 3  Y    0.000205   0.000317   0.000104   0.000218  -0.000063
   28  BR 3  Z   -0.000020   0.000035  -0.000358  -0.000620   0.000422
   29  BR 3 XX    0.000065  -0.000009  -0.000017  -0.000030  -0.000002
   30  BR 3 YY   -0.000025  -0.000060  -0.000025  -0.000042   0.000010
   31  BR 3 ZZ    0.000022  -0.000037   0.000006   0.000010  -0.000036
   32  BR 3 XY   -0.000029  -0.000019   0.000007   0.000013  -0.000012
   33  BR 3 XZ   -0.000017  -0.000011  -0.000014  -0.000026   0.000021
   34  BR 3 YZ   -0.000011  -0.000005   0.000026   0.000044  -0.000037
   35  BR 3 XX    0.000000  -0.000034  -0.000009  -0.000012  -0.000008
   36  BR 3 YY    0.000032  -0.000022  -0.000005  -0.000012  -0.000013
   37  BR 3 ZZ    0.000012  -0.000020  -0.000013  -0.000022   0.000002
   38  BR 3 XY    0.000007   0.000010   0.000000  -0.000003   0.000006
   39  BR 3 XZ    0.000005   0.000005   0.000002   0.000007  -0.000007
   40  BR 3 YZ    0.000005  -0.000001  -0.000007  -0.000010   0.000013
   41  BR 4  S    0.000000   0.000001   0.000009  -0.000016  -0.000014
   42  BR 4  S    0.000008   0.000015   0.000028  -0.000049  -0.000050
   43  BR 4  X    0.609858  -0.352468  -0.056396   0.092668   0.076681
   44  BR 4  Y   -0.352468   0.202864  -0.092668   0.163399   0.132816
   45  BR 4  Z   -0.001413  -0.002448  -0.391951   0.678879   0.554310
   46  BR 4  S    0.000063   0.000109  -0.000035   0.000061  -0.000029
   47  BR 4  X    0.006336  -0.003664  -0.000586   0.000964   0.000797
   48  BR 4  Y   -0.003664   0.002105  -0.000964   0.001699   0.001380
   49  BR 4  Z   -0.000014  -0.000025  -0.004073   0.007054   0.005755
   50  BR 4  S    0.000087   0.000151  -0.000044   0.000076  -0.000040
   51  BR 4  X   -0.001186   0.000691   0.000116  -0.000186  -0.000148
   52  BR 4  Y    0.000691  -0.000388   0.000186  -0.000331  -0.000256
   53  BR 4  Z    0.000001   0.000001   0.000767  -0.001328  -0.001059
   54  BR 4  S    0.000188   0.000326  -0.000068   0.000118  -0.000084
   55  BR 4  X    0.000553  -0.000205  -0.000097   0.000104   0.000036
   56  BR 4  Y   -0.000205   0.000317  -0.000104   0.000218   0.000063
   57  BR 4  Z   -0.000020  -0.000035  -0.000358   0.000620   0.000422
   58  BR 4 XX    0.000065   0.000009  -0.000017   0.000030  -0.000002
   59  BR 4 YY   -0.000025   0.000060  -0.000025   0.000042   0.000010
   60  BR 4 ZZ    0.000022   0.000037   0.000006  -0.000010  -0.000036
   61  BR 4 XY    0.000029  -0.000019  -0.000007   0.000013   0.000012
   62  BR 4 XZ   -0.000017   0.000011  -0.000014   0.000026   0.000021
   63  BR 4 YZ    0.000011  -0.000005  -0.000026   0.000044   0.000037
   64  BR 4 XX    0.000000   0.000034  -0.000009   0.000012  -0.000008
   65  BR 4 YY    0.000032   0.000022  -0.000005   0.000012  -0.000013
   66  BR 4 ZZ    0.000012   0.000020  -0.000013   0.000022   0.000002
   67  BR 4 XY   -0.000007   0.000010   0.000000  -0.000003  -0.000006
   68  BR 4 XZ    0.000005  -0.000005   0.000002  -0.000007  -0.000007
   69  BR 4 YZ   -0.000005  -0.000001   0.000007  -0.000010  -0.000013
   70  BR 5  S   -0.000001   0.000000  -0.000019   0.000000  -0.000014
   71  BR 5  S   -0.000017   0.000000  -0.000056   0.000000  -0.000050
   72  BR 5  X   -0.000634   0.000000  -0.216901   0.000000  -0.153362
   73  BR 5  Y    0.000000   0.813356   0.000000   0.002894   0.000000
   74  BR 5  Z    0.002827   0.000000   0.783902   0.000000   0.554310
   75  BR 5  S   -0.000125   0.000000   0.000071   0.000000  -0.000029
   76  BR 5  X   -0.000011   0.000000  -0.002256   0.000000  -0.001594
   77  BR 5  Y    0.000000   0.008452   0.000000   0.000030   0.000000
   78  BR 5  Z    0.000028   0.000000   0.008145   0.000000   0.005755
   79  BR 5  S   -0.000174   0.000000   0.000088   0.000000  -0.000040
   80  BR 5  X    0.000010   0.000000   0.000438   0.000000   0.000296
   81  BR 5  Y    0.000000  -0.001585   0.000000  -0.000009   0.000000
   82  BR 5  Z   -0.000001   0.000000  -0.001534   0.000000  -0.001059
   83  BR 5  S   -0.000377   0.000000   0.000136   0.000000  -0.000084
   84  BR 5  X    0.000198   0.000000  -0.000278   0.000000  -0.000073
   85  BR 5  Y    0.000000   0.000671   0.000000   0.000037   0.000000
   86  BR 5  Z    0.000040   0.000000   0.000716   0.000000   0.000422
   87  BR 5 XX   -0.000038   0.000000   0.000057   0.000000   0.000016
   88  BR 5 YY   -0.000042   0.000000   0.000027   0.000000  -0.000008
   89  BR 5 ZZ   -0.000043   0.000000  -0.000012   0.000000  -0.000036
   90  BR 5 XY    0.000000  -0.000069   0.000000   0.000001   0.000000
   91  BR 5 XZ    0.000001   0.000000  -0.000058   0.000000  -0.000043
   92  BR 5 YZ    0.000000  -0.000024   0.000000  -0.000001   0.000000
   93  BR 5 XX   -0.000037   0.000000   0.000012   0.000000  -0.000016
   94  BR 5 YY   -0.000027   0.000000   0.000016   0.000000  -0.000005
   95  BR 5 ZZ   -0.000023   0.000000   0.000026   0.000000   0.000002
   96  BR 5 XY    0.000000   0.000022   0.000000  -0.000002   0.000000
   97  BR 5 XZ   -0.000004   0.000000   0.000014   0.000000   0.000015
   98  BR 5 YZ    0.000000   0.000008   0.000000   0.000002   0.000000

                     16         17         18         19         20
                  -10.3565    -8.6886    -8.6886    -8.6886    -6.5220
                     A1         E          E          A1         A1  
    1  H  1  S   -0.000503   0.000000   0.000000  -0.000028  -0.000328
    2  H  1  S    0.005007   0.000000   0.000000  -0.000111  -0.001976
    3  C  2  S    0.995419   0.000000   0.000000   0.000026  -0.000186
    4  C  2  S    0.035791   0.000000   0.000000  -0.000098  -0.001528
    5  C  2  X    0.000000   0.000013   0.000000   0.000000   0.000000
    6  C  2  Y    0.000000   0.000000  -0.000013   0.000000   0.000000
    7  C  2  Z    0.000307   0.000000   0.000000  -0.000008   0.000096
    8  C  2  S   -0.025420   0.000000   0.000000   0.000252   0.003621
    9  C  2  X    0.000000   0.000067   0.000000   0.000000   0.000000
   10  C  2  Y    0.000000   0.000000  -0.000067   0.000000   0.000000
   11  C  2  Z    0.000446   0.000000   0.000000   0.000006  -0.000051
   12  BR 3  S    0.000002   0.050689   0.087796  -0.071685   0.000597
   13  BR 3  S    0.000023   0.195611   0.338808  -0.276635   0.002350
   14  BR 3  X    0.000006  -0.000614  -0.001063   0.000867   0.113518
   15  BR 3  Y   -0.000011   0.001063   0.001842  -0.001502  -0.196619
   16  BR 3  Z   -0.000004   0.000430   0.000745  -0.000608  -0.063032
   17  BR 3  S    0.000176  -0.438071  -0.758761   0.619542  -0.004699
   18  BR 3  X   -0.000028   0.001595   0.002760  -0.002250  -0.297686
   19  BR 3  Y    0.000048  -0.002760  -0.004782   0.003898   0.515607
   20  BR 3  Z    0.000017  -0.001117  -0.001934   0.001577   0.165294
   21  BR 3  S   -0.000199  -0.002161  -0.003743   0.003061   0.000608
   22  BR 3  X    0.000399   0.000093   0.000170  -0.000152  -0.005532
   23  BR 3  Y   -0.000691  -0.000170  -0.000289   0.000263   0.009582
   24  BR 3  Z   -0.000247  -0.000066  -0.000114   0.000102   0.003067
   25  BR 3  S    0.002828  -0.000271  -0.000469   0.000307  -0.000637
   26  BR 3  X    0.000958  -0.000065  -0.000054   0.000038   0.001358
   27  BR 3  Y   -0.001659   0.000054   0.000128  -0.000066  -0.002352
   28  BR 3  Z   -0.000583   0.000018   0.000031  -0.000038  -0.000947
   29  BR 3 XX    0.000068   0.001723   0.002982  -0.002429   0.000466
   30  BR 3 YY    0.000034   0.002067   0.003582  -0.002917  -0.000501
   31  BR 3 ZZ    0.000079   0.001600   0.002771  -0.002257   0.000756
   32  BR 3 XY    0.000034  -0.000346  -0.000599   0.000488   0.000967
   33  BR 3 XZ    0.000012  -0.000112  -0.000193   0.000158   0.000353
   34  BR 3 YZ   -0.000020   0.000193   0.000335  -0.000273  -0.000611
   35  BR 3 XX   -0.000030   0.002434   0.004220  -0.003436   0.000187
   36  BR 3 YY    0.000114   0.002797   0.004841  -0.003947  -0.000593
   37  BR 3 ZZ   -0.000077   0.002308   0.003998  -0.003253   0.000436
   38  BR 3 XY   -0.000143  -0.000358  -0.000624   0.000511   0.000780
   39  BR 3 XZ   -0.000050  -0.000117  -0.000203   0.000166   0.000280
   40  BR 3 YZ    0.000086   0.000203   0.000351  -0.000287  -0.000484
   41  BR 4  S    0.000002   0.050689  -0.087796  -0.071685   0.000597
   42  BR 4  S    0.000023   0.195611  -0.338808  -0.276635   0.002350
   43  BR 4  X    0.000006  -0.000614   0.001063   0.000867   0.113518
   44  BR 4  Y    0.000011  -0.001063   0.001842   0.001502   0.196619
   45  BR 4  Z   -0.000004   0.000430  -0.000745  -0.000608  -0.063032
   46  BR 4  S    0.000176  -0.438071   0.758761   0.619542  -0.004699
   47  BR 4  X   -0.000028   0.001595  -0.002760  -0.002250  -0.297686
   48  BR 4  Y   -0.000048   0.002760  -0.004782  -0.003898  -0.515607
   49  BR 4  Z    0.000017  -0.001117   0.001934   0.001577   0.165294
   50  BR 4  S   -0.000199  -0.002161   0.003743   0.003061   0.000608
   51  BR 4  X    0.000399   0.000093  -0.000170  -0.000152  -0.005532
   52  BR 4  Y    0.000691   0.000170  -0.000289  -0.000263  -0.009582
   53  BR 4  Z   -0.000247  -0.000066   0.000114   0.000102   0.003067
   54  BR 4  S    0.002828  -0.000271   0.000469   0.000307  -0.000637
   55  BR 4  X    0.000958  -0.000065   0.000054   0.000038   0.001358
   56  BR 4  Y    0.001659  -0.000054   0.000128   0.000066   0.002352
   57  BR 4  Z   -0.000583   0.000018  -0.000031  -0.000038  -0.000947
   58  BR 4 XX    0.000068   0.001723  -0.002982  -0.002429   0.000466
   59  BR 4 YY    0.000034   0.002067  -0.003582  -0.002917  -0.000501
   60  BR 4 ZZ    0.000079   0.001600  -0.002771  -0.002257   0.000756
   61  BR 4 XY   -0.000034   0.000346  -0.000599  -0.000488  -0.000967
   62  BR 4 XZ    0.000012  -0.000112   0.000193   0.000158   0.000353
   63  BR 4 YZ    0.000020  -0.000193   0.000335   0.000273   0.000611
   64  BR 4 XX   -0.000030   0.002434  -0.004220  -0.003436   0.000187
   65  BR 4 YY    0.000114   0.002797  -0.004841  -0.003947  -0.000593
   66  BR 4 ZZ   -0.000077   0.002308  -0.003998  -0.003253   0.000436
   67  BR 4 XY    0.000143   0.000358  -0.000624  -0.000511  -0.000780
   68  BR 4 XZ   -0.000050  -0.000117   0.000203   0.000166   0.000280
   69  BR 4 YZ   -0.000086  -0.000203   0.000351   0.000287   0.000484
   70  BR 5  S    0.000002  -0.101379   0.000000  -0.071685   0.000597
   71  BR 5  S    0.000023  -0.391222   0.000000  -0.276635   0.002350
   72  BR 5  X   -0.000013  -0.002455   0.000000  -0.001734  -0.227036
   73  BR 5  Y    0.000000   0.000000   0.000000   0.000000   0.000000
   74  BR 5  Z   -0.000004  -0.000860   0.000000  -0.000608  -0.063032
   75  BR 5  S    0.000176   0.876142   0.000000   0.619542  -0.004699
   76  BR 5  X    0.000056   0.006375   0.000000   0.004501   0.595372
   77  BR 5  Y    0.000000   0.000000  -0.000001   0.000000   0.000000
   78  BR 5  Z    0.000017   0.002233   0.000000   0.001577   0.165294
   79  BR 5  S   -0.000199   0.004323   0.000000   0.003061   0.000608
   80  BR 5  X   -0.000798   0.000387   0.000000   0.000304   0.011065
   81  BR 5  Y    0.000000   0.000000   0.000004   0.000000   0.000000
   82  BR 5  Z   -0.000247   0.000132   0.000000   0.000102   0.003067
   83  BR 5  S    0.002828   0.000542   0.000000   0.000307  -0.000637
   84  BR 5  X   -0.001916  -0.000159   0.000000  -0.000077  -0.002716
   85  BR 5  Y    0.000000   0.000000   0.000034   0.000000   0.000000
   86  BR 5  Z   -0.000583  -0.000035   0.000000  -0.000038  -0.000947
   87  BR 5 XX    0.000017  -0.004481   0.000000  -0.003161  -0.000985
   88  BR 5 YY    0.000085  -0.003098   0.000000  -0.002185   0.000949
   89  BR 5 ZZ    0.000079  -0.003199   0.000000  -0.002257   0.000756
   90  BR 5 XY    0.000000   0.000000   0.000001   0.000000   0.000000
   91  BR 5 XZ   -0.000023  -0.000446   0.000000  -0.000316  -0.000705
   92  BR 5 YZ    0.000000   0.000000   0.000000   0.000000   0.000000
   93  BR 5 XX    0.000185  -0.005951   0.000000  -0.004203  -0.000983
   94  BR 5 YY   -0.000102  -0.004512   0.000000  -0.003181   0.000577
   95  BR 5 ZZ   -0.000077  -0.004617   0.000000  -0.003253   0.000436
   96  BR 5 XY    0.000000   0.000000  -0.000003   0.000000   0.000000
   97  BR 5 XZ    0.000099  -0.000468   0.000000  -0.000331  -0.000559
   98  BR 5 YZ    0.000000   0.000000   0.000000   0.000000   0.000000

                     21         22         23         24         25
                   -6.5220    -6.5220    -6.5054    -6.5054    -6.5054
                     E          E          A2         E          E   
    1  H  1  S    0.000000   0.000000   0.000000   0.000000   0.000000
    2  H  1  S    0.000000   0.000000   0.000000   0.000000   0.000000
    3  C  2  S    0.000000   0.000000   0.000000   0.000000   0.000000
    4  C  2  S    0.000000   0.000000   0.000000   0.000000   0.000000
    5  C  2  X    0.000362   0.000000   0.000000   0.000162   0.000000
    6  C  2  Y    0.000000   0.000362   0.000000   0.000000   0.000162
    7  C  2  Z    0.000000   0.000000   0.000000   0.000000   0.000000
    8  C  2  S    0.000000   0.000000   0.000000   0.000000   0.000000
    9  C  2  X    0.000875   0.000000   0.000000  -0.000966   0.000000
   10  C  2  Y    0.000000   0.000875   0.000000   0.000000  -0.000966
   11  C  2  Z    0.000000   0.000000   0.000000   0.000000   0.000000
   12  BR 3  S   -0.000420   0.000728   0.000000   0.000001  -0.000001
   13  BR 3  S   -0.001667   0.002888   0.000000  -0.000017   0.000029
   14  BR 3  X   -0.080238   0.139069   0.204138  -0.249978  -0.144431
   15  BR 3  Y    0.139069  -0.240822   0.117859  -0.144431  -0.083204
   16  BR 3  Z    0.044583  -0.077219   0.000000   0.000456  -0.000789
   17  BR 3  S    0.003328  -0.005764   0.000000  -0.000123   0.000214
   18  BR 3  X    0.210427  -0.364704  -0.535453   0.655701   0.378843
   19  BR 3  Y   -0.364704   0.631550  -0.309144   0.378843   0.218251
   20  BR 3  Z   -0.116918   0.202508   0.000000  -0.001196   0.002072
   21  BR 3  S   -0.000621   0.001076   0.000000  -0.000368   0.000637
   22  BR 3  X    0.003776  -0.006585  -0.008973   0.010783   0.006273
   23  BR 3  Y   -0.006585   0.011379  -0.005181   0.006273   0.003540
   24  BR 3  Z   -0.002078   0.003599   0.000000  -0.000010   0.000017
   25  BR 3  S   -0.000641   0.001111   0.000000  -0.000894   0.001549
   26  BR 3  X   -0.001816   0.001947   0.003195  -0.003199  -0.001312
   27  BR 3  Y    0.001947  -0.004063   0.001844  -0.001312  -0.001684
   28  BR 3  Z    0.000535  -0.000927   0.000000   0.000098  -0.000170
   29  BR 3 XX   -0.000304   0.000540  -0.000911   0.001081   0.000691
   30  BR 3 YY    0.000374  -0.000661   0.000911  -0.001138  -0.000593
   31  BR 3 ZZ   -0.000521   0.000902   0.000000  -0.000030   0.000051
   32  BR 3 XY   -0.000694   0.001192   0.000608  -0.000741  -0.000425
   33  BR 3 XZ   -0.000251   0.000432   0.000365  -0.000448  -0.000254
   34  BR 3 YZ    0.000432  -0.000750   0.000211  -0.000254  -0.000154
   35  BR 3 XX   -0.000126   0.000158  -0.000702   0.000847   0.000580
   36  BR 3 YY    0.000453  -0.000724   0.000702  -0.000934  -0.000430
   37  BR 3 ZZ   -0.000253   0.000438   0.000000  -0.000029   0.000050
   38  BR 3 XY   -0.000509   0.000922   0.000468  -0.000583  -0.000355
   39  BR 3 XZ   -0.000192   0.000341   0.000286  -0.000351  -0.000208
   40  BR 3 YZ    0.000341  -0.000585   0.000165  -0.000208  -0.000111
   41  BR 4  S   -0.000420  -0.000728   0.000000   0.000001   0.000001
   42  BR 4  S   -0.001667  -0.002888   0.000000  -0.000017  -0.000029
   43  BR 4  X   -0.080238  -0.139069  -0.204138  -0.249978   0.144431
   44  BR 4  Y   -0.139069  -0.240822   0.117859   0.144431  -0.083204
   45  BR 4  Z    0.044583   0.077219   0.000000   0.000456   0.000789
   46  BR 4  S    0.003328   0.005764   0.000000  -0.000123  -0.000214
   47  BR 4  X    0.210427   0.364704   0.535453   0.655701  -0.378843
   48  BR 4  Y    0.364704   0.631550  -0.309144  -0.378843   0.218251
   49  BR 4  Z   -0.116918  -0.202508   0.000000  -0.001196  -0.002072
   50  BR 4  S   -0.000621  -0.001076   0.000000  -0.000368  -0.000637
   51  BR 4  X    0.003776   0.006585   0.008973   0.010783  -0.006273
   52  BR 4  Y    0.006585   0.011379  -0.005181  -0.006273   0.003540
   53  BR 4  Z   -0.002078  -0.003599   0.000000  -0.000010  -0.000017
   54  BR 4  S   -0.000641  -0.001111   0.000000  -0.000894  -0.001549
   55  BR 4  X   -0.001816  -0.001947  -0.003195  -0.003199   0.001312
   56  BR 4  Y   -0.001947  -0.004063   0.001844   0.001312  -0.001684
   57  BR 4  Z    0.000535   0.000927   0.000000   0.000098   0.000170
   58  BR 4 XX   -0.000304  -0.000540   0.000911   0.001081  -0.000691
   59  BR 4 YY    0.000374   0.000661  -0.000911  -0.001138   0.000593
   60  BR 4 ZZ   -0.000521  -0.000902   0.000000  -0.000030  -0.000051
   61  BR 4 XY    0.000694   0.001192   0.000608   0.000741  -0.000425
   62  BR 4 XZ   -0.000251  -0.000432  -0.000365  -0.000448   0.000254
   63  BR 4 YZ   -0.000432  -0.000750   0.000211   0.000254  -0.000154
   64  BR 4 XX   -0.000126  -0.000158   0.000702   0.000847  -0.000580
   65  BR 4 YY    0.000453   0.000724  -0.000702  -0.000934   0.000430
   66  BR 4 ZZ   -0.000253  -0.000438   0.000000  -0.000029  -0.000050
   67  BR 4 XY    0.000509   0.000922   0.000468   0.000583  -0.000355
   68  BR 4 XZ   -0.000192  -0.000341  -0.000286  -0.000351   0.000208
   69  BR 4 YZ   -0.000341  -0.000585   0.000165   0.000208  -0.000111
   70  BR 5  S    0.000840   0.000000   0.000000  -0.000001   0.000000
   71  BR 5  S    0.003335   0.000000   0.000000   0.000033   0.000000
   72  BR 5  X   -0.321113   0.000000   0.000000   0.000183   0.000000
   73  BR 5  Y    0.000000   0.000054  -0.235718   0.000000  -0.333365
   74  BR 5  Z   -0.089165   0.000000   0.000000  -0.000911   0.000000
   75  BR 5  S   -0.006656   0.000000   0.000000   0.000247   0.000000
   76  BR 5  X    0.842112   0.000000   0.000000  -0.000474   0.000000
   77  BR 5  Y    0.000000  -0.000135   0.618288   0.000000   0.874427
   78  BR 5  Z    0.233836   0.000000   0.000000   0.002392   0.000000
   79  BR 5  S    0.001242   0.000000   0.000000   0.000736   0.000000
   80  BR 5  X    0.015181   0.000000   0.000000  -0.000081   0.000000
   81  BR 5  Y    0.000000  -0.000026   0.010361   0.000000   0.014405
   82  BR 5  Z    0.004156   0.000000   0.000000   0.000020   0.000000
   83  BR 5  S    0.001283   0.000000   0.000000   0.001788   0.000000
   84  BR 5  X   -0.005187   0.000000   0.000000  -0.000926   0.000000
   85  BR 5  Y    0.000000  -0.000692  -0.003689   0.000000  -0.003956
   86  BR 5  Z   -0.001071   0.000000   0.000000  -0.000197   0.000000
   87  BR 5 XX   -0.001449   0.000000   0.000000   0.000054   0.000000
   88  BR 5 YY    0.001309   0.000000   0.000000   0.000059   0.000000
   89  BR 5 ZZ    0.001042   0.000000   0.000000   0.000059   0.000000
   90  BR 5 XY    0.000000  -0.000010  -0.001215   0.000000  -0.001709
   91  BR 5 XZ   -0.000999   0.000000   0.000000  -0.000007   0.000000
   92  BR 5 YZ    0.000000  -0.000001  -0.000421   0.000000  -0.000595
   93  BR 5 XX   -0.001381   0.000000   0.000000   0.000103   0.000000
   94  BR 5 YY    0.000726   0.000000   0.000000   0.000071   0.000000
   95  BR 5 ZZ    0.000506   0.000000   0.000000   0.000058   0.000000
   96  BR 5 XY    0.000000   0.000040  -0.000937   0.000000  -0.001364
   97  BR 5 XZ   -0.000782   0.000000   0.000000   0.000009   0.000000
   98  BR 5 YZ    0.000000   0.000005  -0.000331   0.000000  -0.000471

                     26         27         28         29         30
                   -6.5053    -6.5053    -6.5053    -2.6111    -2.6107
                     E          E          A1         A1         E   
    1  H  1  S    0.000000   0.000000  -0.000008  -0.004343   0.000000
    2  H  1  S    0.000000   0.000000  -0.001830  -0.002907   0.000000
    3  C  2  S    0.000000   0.000000  -0.000010  -0.004720   0.000000
    4  C  2  S    0.000000   0.000000  -0.000064  -0.025609   0.000000
    5  C  2  X    0.000033   0.000000   0.000000   0.000000  -0.000154
    6  C  2  Y    0.000000  -0.000033   0.000000   0.000000   0.000000
    7  C  2  Z    0.000000   0.000000   0.000131  -0.000194   0.000000
    8  C  2  S    0.000000   0.000000   0.000610   0.084703   0.000000
    9  C  2  X    0.000094   0.000000   0.000000   0.000000   0.041016
   10  C  2  Y    0.000000  -0.000094   0.000000   0.000000   0.000000
   11  C  2  Z    0.000000   0.000000  -0.001034   0.013358   0.000000
   12  BR 3  S   -0.000028  -0.000049   0.000039  -0.000231   0.000165
   13  BR 3  S   -0.000100  -0.000174   0.000161  -0.001072   0.000936
   14  BR 3  X    0.022994   0.038219  -0.031529   0.000340  -0.000352
   15  BR 3  Y   -0.038219  -0.067125   0.054610  -0.000589   0.000539
   16  BR 3  Z    0.160606   0.278178  -0.227141  -0.000161   0.000161
   17  BR 3  S    0.000306   0.000529  -0.000281   0.002565  -0.000261
   18  BR 3  X   -0.060313  -0.100249   0.082702  -0.000863   0.001066
   19  BR 3  Y    0.100249   0.176070  -0.143244   0.001495  -0.001469
   20  BR 3  Z   -0.421275  -0.729670   0.595806   0.000423  -0.000443
   21  BR 3  S    0.000181   0.000313   0.000174  -0.003019   0.006847
   22  BR 3  X   -0.001015  -0.001674   0.001359  -0.001303  -0.001784
   23  BR 3  Y    0.001674   0.002949  -0.002354   0.002257  -0.000247
   24  BR 3  Z   -0.006952  -0.012041   0.009705   0.000385  -0.000002
   25  BR 3  S    0.000317   0.000548   0.000413  -0.017912   0.018511
   26  BR 3  X    0.000513   0.000590  -0.000244  -0.007476   0.006033
   27  BR 3  Y   -0.000590  -0.001194   0.000423   0.012948  -0.011981
   28  BR 3  Z    0.002093   0.003624  -0.002513   0.003809  -0.004441
   29  BR 3 XX   -0.000125  -0.000207   0.000208  -0.065102   0.079310
   30  BR 3 YY   -0.000315  -0.000556   0.000486   0.238212  -0.193115
   31  BR 3 ZZ    0.000478   0.000828  -0.000637  -0.172532   0.114728
   32  BR 3 XY    0.000202   0.000342  -0.000278  -0.303314   0.187831
   33  BR 3 XZ   -0.000372  -0.000645   0.000525  -0.090783   0.059326
   34  BR 3 YZ    0.000645   0.001117  -0.000909   0.157241  -0.132236
   35  BR 3 XX   -0.000071  -0.000129   0.000154  -0.034479   0.042910
   36  BR 3 YY   -0.000229  -0.000390   0.000381   0.129917  -0.104671
   37  BR 3 ZZ    0.000399   0.000691  -0.000523  -0.092699   0.062217
   38  BR 3 XY    0.000151   0.000265  -0.000227  -0.164396   0.101938
   39  BR 3 XZ   -0.000287  -0.000508   0.000419  -0.049222   0.032211
   40  BR 3 YZ    0.000508   0.000874  -0.000726   0.085255  -0.071670
   41  BR 4  S   -0.000028   0.000049   0.000039  -0.000231   0.000165
   42  BR 4  S   -0.000100   0.000174   0.000161  -0.001072   0.000936
   43  BR 4  X    0.022994  -0.038219  -0.031529   0.000340  -0.000352
   44  BR 4  Y    0.038219  -0.067125  -0.054610   0.000589  -0.000539
   45  BR 4  Z    0.160606  -0.278178  -0.227141  -0.000161   0.000161
   46  BR 4  S    0.000306  -0.000529  -0.000281   0.002565  -0.000261
   47  BR 4  X   -0.060313   0.100249   0.082702  -0.000863   0.001066
   48  BR 4  Y   -0.100249   0.176070   0.143244  -0.001495   0.001469
   49  BR 4  Z   -0.421275   0.729670   0.595806   0.000423  -0.000443
   50  BR 4  S    0.000181  -0.000313   0.000174  -0.003019   0.006847
   51  BR 4  X   -0.001015   0.001674   0.001359  -0.001303  -0.001784
   52  BR 4  Y   -0.001674   0.002949   0.002354  -0.002257   0.000247
   53  BR 4  Z   -0.006952   0.012041   0.009705   0.000385  -0.000002
   54  BR 4  S    0.000317  -0.000548   0.000413  -0.017912   0.018511
   55  BR 4  X    0.000513  -0.000590  -0.000244  -0.007476   0.006033
   56  BR 4  Y    0.000590  -0.001194  -0.000423  -0.012948   0.011981
   57  BR 4  Z    0.002093  -0.003624  -0.002513   0.003809  -0.004441
   58  BR 4 XX   -0.000125   0.000207   0.000208  -0.065102   0.079310
   59  BR 4 YY   -0.000315   0.000556   0.000486   0.238212  -0.193115
   60  BR 4 ZZ    0.000478  -0.000828  -0.000637  -0.172532   0.114728
   61  BR 4 XY   -0.000202   0.000342   0.000278   0.303314  -0.187831
   62  BR 4 XZ   -0.000372   0.000645   0.000525  -0.090783   0.059326
   63  BR 4 YZ   -0.000645   0.001117   0.000909  -0.157241   0.132236
   64  BR 4 XX   -0.000071   0.000129   0.000154  -0.034479   0.042910
   65  BR 4 YY   -0.000229   0.000390   0.000381   0.129917  -0.104671
   66  BR 4 ZZ    0.000399  -0.000691  -0.000523  -0.092699   0.062217
   67  BR 4 XY   -0.000151   0.000265   0.000227   0.164396  -0.101938
   68  BR 4 XZ   -0.000287   0.000508   0.000419  -0.049222   0.032211
   69  BR 4 YZ   -0.000508   0.000874   0.000726  -0.085255   0.071670
   70  BR 5  S    0.000056   0.000000   0.000039  -0.000231  -0.000330
   71  BR 5  S    0.000201   0.000000   0.000161  -0.001072  -0.001871
   72  BR 5  X    0.089191   0.000000   0.063058  -0.000680  -0.001286
   73  BR 5  Y    0.000000  -0.000928   0.000000   0.000000   0.000000
   74  BR 5  Z   -0.321212   0.000000  -0.227141  -0.000161  -0.000323
   75  BR 5  S   -0.000611   0.000000  -0.000281   0.002565   0.000523
   76  BR 5  X   -0.233949   0.000000  -0.165404   0.001726   0.003610
   77  BR 5  Y    0.000000   0.002435   0.000000   0.000000   0.000000
   78  BR 5  Z    0.842550   0.000000   0.595806   0.000423   0.000885
   79  BR 5  S   -0.000362   0.000000   0.000174  -0.003019  -0.013694
   80  BR 5  X   -0.003915   0.000000  -0.002718   0.002606  -0.001355
   81  BR 5  Y    0.000000   0.000049   0.000000   0.000000   0.000000
   82  BR 5  Z    0.013904   0.000000   0.009705   0.000385   0.000005
   83  BR 5  S   -0.000633   0.000000   0.000413  -0.017912  -0.037022
   84  BR 5  X    0.001535   0.000000   0.000488   0.014952   0.026785
   85  BR 5  Y    0.000000  -0.000173   0.000000   0.000000   0.000000
   86  BR 5  Z   -0.004185   0.000000  -0.002513   0.003809   0.008882
   87  BR 5 XX    0.000838   0.000000   0.000625   0.389869   0.531764
   88  BR 5 YY    0.000043   0.000000   0.000069  -0.216758  -0.304153
   89  BR 5 ZZ   -0.000956   0.000000  -0.000637  -0.172532  -0.229455
   90  BR 5 XY    0.000000  -0.000007   0.000000   0.000000   0.000000
   91  BR 5 XZ   -0.001489   0.000000  -0.001050   0.181566   0.288365
   92  BR 5 YZ    0.000000   0.000000   0.000000   0.000000   0.000000
   93  BR 5 XX    0.000605   0.000000   0.000495   0.212115   0.288458
   94  BR 5 YY   -0.000006   0.000000   0.000040  -0.116677  -0.164937
   95  BR 5 ZZ   -0.000798   0.000000  -0.000523  -0.092699  -0.124434
   96  BR 5 XY    0.000000   0.000004   0.000000   0.000000   0.000000
   97  BR 5 XZ   -0.001167   0.000000  -0.000838   0.098443   0.156347
   98  BR 5 YZ    0.000000  -0.000007   0.000000   0.000000   0.000000

                     31         32         33         34         35
                   -2.6107    -2.6061    -2.6058    -2.6058    -2.6055
                     E          A1         E          E          A2  
    1  H  1  S    0.000000  -0.005311   0.000000   0.000000   0.000000
    2  H  1  S    0.000000  -0.023931   0.000000   0.000000   0.000000
    3  C  2  S    0.000000  -0.000577   0.000000   0.000000   0.000000
    4  C  2  S    0.000000  -0.003365   0.000000   0.000000   0.000000
    5  C  2  X    0.000000   0.000000  -0.006027   0.000000   0.000000
    6  C  2  Y    0.000154   0.000000   0.000000   0.006027   0.000000
    7  C  2  Z    0.000000   0.006917   0.000000   0.000000   0.000000
    8  C  2  S    0.000000   0.018666   0.000000   0.000000   0.000000
    9  C  2  X    0.000000   0.000000   0.022559   0.000000   0.000000
   10  C  2  Y   -0.041016   0.000000   0.000000  -0.022559   0.000000
   11  C  2  Z    0.000000  -0.037303   0.000000   0.000000   0.000000
   12  BR 3  S    0.000286  -0.000009  -0.000020  -0.000035   0.000000
   13  BR 3  S    0.001621  -0.000088  -0.000160  -0.000277   0.000000
   14  BR 3  X   -0.000539  -0.000025   0.000961  -0.000249   0.000874
   15  BR 3  Y    0.000975   0.000044   0.000249  -0.000673   0.000504
   16  BR 3  Z    0.000280  -0.000801   0.000163   0.000282   0.000000
   17  BR 3  S   -0.000453  -0.000389  -0.000680  -0.001178   0.000000
   18  BR 3  X    0.001469   0.000036  -0.002753   0.000587  -0.002558
   19  BR 3  Y   -0.002762  -0.000063  -0.000587   0.002074  -0.001477
   20  BR 3  Z   -0.000767   0.002232  -0.000450  -0.000780   0.000000
   21  BR 3  S    0.011859  -0.001536  -0.002655  -0.004599   0.000000
   22  BR 3  X    0.000247   0.000701   0.002081   0.002150   0.002739
   23  BR 3  Y    0.001498  -0.001215  -0.002150  -0.004563   0.001581
   24  BR 3  Z   -0.000004  -0.000605  -0.000021  -0.000036   0.000000
   25  BR 3  S    0.032062   0.001189   0.002377   0.004118   0.000000
   26  BR 3  X    0.011981   0.000893  -0.002793   0.002120  -0.003923
   27  BR 3  Y   -0.019868  -0.001547  -0.002120   0.000345  -0.002265
   28  BR 3  Z   -0.007692   0.004699  -0.002072  -0.003589   0.000000
   29  BR 3 XX    0.064107  -0.049761   0.366716  -0.196946   0.311798
   30  BR 3 YY   -0.261225  -0.137883  -0.313107   0.289799  -0.311798
   31  BR 3 ZZ    0.198714   0.187228  -0.054399  -0.094222   0.000000
   32  BR 3 XY    0.374173   0.088121  -0.281022   0.067999  -0.207865
   33  BR 3 XZ    0.132236  -0.187319  -0.080752   0.127485  -0.099256
   34  BR 3 YZ   -0.212019   0.324447  -0.127485  -0.066455  -0.057306
   35  BR 3 XX    0.034795  -0.027147   0.198465  -0.107364   0.169094
   36  BR 3 YY   -0.141767  -0.074848  -0.169986   0.156691  -0.169094
   37  BR 3 ZZ    0.107763   0.101273  -0.029866  -0.051729   0.000000
   38  BR 3 XY    0.202914   0.047701  -0.152452   0.036689  -0.112729
   39  BR 3 XZ    0.071670  -0.101532  -0.043812   0.069052  -0.053832
   40  BR 3 YZ   -0.114969   0.175858  -0.069052  -0.035922  -0.031080
   41  BR 4  S   -0.000286  -0.000009  -0.000020   0.000035   0.000000
   42  BR 4  S   -0.001621  -0.000088  -0.000160   0.000277   0.000000
   43  BR 4  X    0.000539  -0.000025   0.000961   0.000249  -0.000874
   44  BR 4  Y    0.000975  -0.000044  -0.000249  -0.000673   0.000504
   45  BR 4  Z   -0.000280  -0.000801   0.000163  -0.000282   0.000000
   46  BR 4  S    0.000453  -0.000389  -0.000680   0.001178   0.000000
   47  BR 4  X   -0.001469   0.000036  -0.002753  -0.000587   0.002558
   48  BR 4  Y   -0.002762   0.000063   0.000587   0.002074  -0.001477
   49  BR 4  Z    0.000767   0.002232  -0.000450   0.000780   0.000000
   50  BR 4  S   -0.011859  -0.001536  -0.002655   0.004599   0.000000
   51  BR 4  X   -0.000247   0.000701   0.002081  -0.002150  -0.002739
   52  BR 4  Y    0.001498   0.001215   0.002150  -0.004563   0.001581
   53  BR 4  Z    0.000004  -0.000605  -0.000021   0.000036   0.000000
   54  BR 4  S   -0.032062   0.001189   0.002377  -0.004118   0.000000
   55  BR 4  X   -0.011981   0.000893  -0.002793  -0.002120   0.003923
   56  BR 4  Y   -0.019868   0.001547   0.002120   0.000345  -0.002265
   57  BR 4  Z    0.007692   0.004699  -0.002072   0.003589   0.000000
   58  BR 4 XX   -0.064107  -0.049761   0.366716   0.196946  -0.311798
   59  BR 4 YY    0.261225  -0.137883  -0.313107  -0.289799   0.311798
   60  BR 4 ZZ   -0.198714   0.187228  -0.054399   0.094222   0.000000
   61  BR 4 XY    0.374173  -0.088121   0.281022   0.067999  -0.207865
   62  BR 4 XZ   -0.132236  -0.187319  -0.080752  -0.127485   0.099256
   63  BR 4 YZ   -0.212019  -0.324447   0.127485  -0.066455  -0.057306
   64  BR 4 XX   -0.034795  -0.027147   0.198465   0.107364  -0.169094
   65  BR 4 YY    0.141767  -0.074848  -0.169986  -0.156691   0.169094
   66  BR 4 ZZ   -0.107763   0.101273  -0.029866   0.051729   0.000000
   67  BR 4 XY    0.202914  -0.047701   0.152452   0.036689  -0.112729
   68  BR 4 XZ   -0.071670  -0.101532  -0.043812  -0.069052   0.053832
   69  BR 4 YZ   -0.114969  -0.175858   0.069052  -0.035922  -0.031080
   70  BR 5  S    0.000000  -0.000009   0.000041   0.000000   0.000000
   71  BR 5  S    0.000000  -0.000088   0.000320   0.000000   0.000000
   72  BR 5  X    0.000000   0.000050   0.000529   0.000000   0.000000
   73  BR 5  Y    0.000041   0.000000   0.000000  -0.001105  -0.001009
   74  BR 5  Z    0.000000  -0.000801  -0.000325   0.000000   0.000000
   75  BR 5  S    0.000000  -0.000389   0.001360   0.000000   0.000000
   76  BR 5  X    0.000000  -0.000073  -0.001735   0.000000   0.000000
   77  BR 5  Y   -0.000218   0.000000   0.000000   0.003092   0.002953
   78  BR 5  Z    0.000000   0.002232   0.000900   0.000000   0.000000
   79  BR 5  S    0.000000  -0.001536   0.005310   0.000000   0.000000
   80  BR 5  X    0.000000  -0.001403   0.005804   0.000000   0.000000
   81  BR 5  Y    0.001927   0.000000   0.000000  -0.000840  -0.003163
   82  BR 5  Z    0.000000  -0.000605   0.000042   0.000000   0.000000
   83  BR 5  S    0.000000   0.001189  -0.004755   0.000000   0.000000
   84  BR 5  X    0.000000  -0.001786   0.000879   0.000000   0.000000
   85  BR 5  Y    0.000884   0.000000   0.000000   0.004018   0.004530
   86  BR 5  Z    0.000000   0.004699   0.004144   0.000000   0.000000
   87  BR 5 XX    0.000000  -0.181943  -0.135231   0.000000   0.000000
   88  BR 5 YY    0.000000  -0.005701   0.028013   0.000000   0.000000
   89  BR 5 ZZ    0.000000   0.187228   0.108798   0.000000   0.000000
   90  BR 5 XY    0.048841   0.000000   0.000000   0.554744   0.415730
   91  BR 5 XZ    0.000000   0.374639   0.140058   0.000000   0.000000
   92  BR 5 YZ    0.017020   0.000000   0.000000   0.154356   0.114611
   93  BR 5 XX    0.000000  -0.098698  -0.072932   0.000000   0.000000
   94  BR 5 YY    0.000000  -0.003297   0.015974   0.000000   0.000000
   95  BR 5 ZZ    0.000000   0.101273   0.059731   0.000000   0.000000
   96  BR 5 XY    0.026352   0.000000   0.000000   0.300743   0.225459
   97  BR 5 XZ    0.000000   0.203064   0.075789   0.000000   0.000000
   98  BR 5 YZ    0.009168   0.000000   0.000000   0.083679   0.062160

                     36         37         38         39         40
                   -2.6054    -2.6054    -2.5925    -2.5925    -2.5924
                     E          E          E          E          A1  
    1  H  1  S    0.000000   0.000000   0.000000   0.000000   0.001002
    2  H  1  S    0.000000   0.000000   0.000000   0.000000  -0.005916
    3  C  2  S    0.000000   0.000000   0.000000   0.000000  -0.000008
    4  C  2  S    0.000000   0.000000   0.000000   0.000000  -0.000102
    5  C  2  X    0.000025   0.000000   0.000575   0.000000   0.000000
    6  C  2  Y    0.000000   0.000025   0.000000   0.000575   0.000000
    7  C  2  Z    0.000000   0.000000   0.000000   0.000000   0.000509
    8  C  2  S    0.000000   0.000000   0.000000   0.000000   0.000784
    9  C  2  X    0.001049   0.000000  -0.003627   0.000000   0.000000
   10  C  2  Y    0.000000   0.001049   0.000000  -0.003627   0.000000
   11  C  2  Z    0.000000   0.000000   0.000000   0.000000  -0.003175
   12  BR 3  S   -0.000001   0.000001   0.000001  -0.000002  -0.000003
   13  BR 3  S   -0.000003   0.000006  -0.000063   0.000109   0.000036
   14  BR 3  X   -0.000198  -0.000263  -0.000009  -0.000042   0.000002
   15  BR 3  Y   -0.000263   0.000106  -0.000042   0.000040  -0.000003
   16  BR 3  Z    0.000590  -0.001022   0.000040  -0.000069   0.000091
   17  BR 3  S   -0.000012   0.000021  -0.000481   0.000833   0.000384
   18  BR 3  X    0.000535   0.000737  -0.000004   0.000127   0.000002
   19  BR 3  Y    0.000737  -0.000316   0.000127  -0.000150  -0.000003
   20  BR 3  Z   -0.001684   0.002916  -0.000126   0.000218  -0.000281
   21  BR 3  S   -0.000042   0.000072  -0.001572   0.002724   0.001110
   22  BR 3  X    0.000270  -0.000146   0.000594  -0.000226  -0.000136
   23  BR 3  Y   -0.000146   0.000439  -0.000226   0.000855   0.000235
   24  BR 3  Z    0.000945  -0.001637   0.000308  -0.000534   0.000583
   25  BR 3  S    0.000144  -0.000249  -0.002894   0.005013   0.001621
   26  BR 3  X   -0.000808  -0.000406  -0.001678   0.001567   0.000573
   27  BR 3  Y   -0.000406  -0.000339   0.001567  -0.003487  -0.000993
   28  BR 3  Z   -0.000868   0.001504  -0.000064   0.000111  -0.000813
   29  BR 3 XX   -0.089118  -0.125693   0.186353  -0.107336   0.273566
   30  BR 3 YY    0.218953  -0.099187  -0.069270  -0.095458   0.074742
   31  BR 3 ZZ   -0.129851   0.224909  -0.117440   0.203412  -0.348023
   32  BR 3 XY    0.015303   0.160194   0.006858  -0.155503   0.198824
   33  BR 3 XZ    0.162434  -0.191449   0.368290   0.255593  -0.055870
   34  BR 3 YZ   -0.191449   0.383500   0.255593   0.073157   0.096769
   35  BR 3 XX   -0.048338  -0.068158   0.100583  -0.057778   0.147949
   36  BR 3 YY    0.118739  -0.053780  -0.037586  -0.051336   0.040514
   37  BR 3 ZZ   -0.070426   0.121981  -0.063591   0.110142  -0.187972
   38  BR 3 XY    0.008301   0.086877   0.003719  -0.084066   0.107435
   39  BR 3 XZ    0.088090  -0.103821   0.199031   0.138110  -0.030189
   40  BR 3 YZ   -0.103821   0.207973   0.138110   0.039555   0.052289
   41  BR 4  S   -0.000001  -0.000001   0.000001   0.000002  -0.000003
   42  BR 4  S   -0.000003  -0.000006  -0.000063  -0.000109   0.000036
   43  BR 4  X   -0.000198   0.000263  -0.000009   0.000042   0.000002
   44  BR 4  Y    0.000263   0.000106   0.000042   0.000040   0.000003
   45  BR 4  Z    0.000590   0.001022   0.000040   0.000069   0.000091
   46  BR 4  S   -0.000012  -0.000021  -0.000481  -0.000833   0.000384
   47  BR 4  X    0.000535  -0.000737  -0.000004  -0.000127   0.000002
   48  BR 4  Y   -0.000737  -0.000316  -0.000127  -0.000150   0.000003
   49  BR 4  Z   -0.001684  -0.002916  -0.000126  -0.000218  -0.000281
   50  BR 4  S   -0.000042  -0.000072  -0.001572  -0.002724   0.001110
   51  BR 4  X    0.000270   0.000146   0.000594   0.000226  -0.000136
   52  BR 4  Y    0.000146   0.000439   0.000226   0.000855  -0.000235
   53  BR 4  Z    0.000945   0.001637   0.000308   0.000534   0.000583
   54  BR 4  S    0.000144   0.000249  -0.002894  -0.005013   0.001621
   55  BR 4  X   -0.000808   0.000406  -0.001678  -0.001567   0.000573
   56  BR 4  Y    0.000406  -0.000339  -0.001567  -0.003487   0.000993
   57  BR 4  Z   -0.000868  -0.001504  -0.000064  -0.000111  -0.000813
   58  BR 4 XX   -0.089118   0.125693   0.186353   0.107336   0.273566
   59  BR 4 YY    0.218953   0.099187  -0.069270   0.095458   0.074742
   60  BR 4 ZZ   -0.129851  -0.224909  -0.117440  -0.203412  -0.348023
   61  BR 4 XY   -0.015303   0.160194  -0.006858  -0.155503  -0.198824
   62  BR 4 XZ    0.162434   0.191449   0.368290  -0.255593  -0.055870
   63  BR 4 YZ    0.191449   0.383500  -0.255593   0.073157  -0.096769
   64  BR 4 XX   -0.048338   0.068158   0.100583   0.057778   0.147949
   65  BR 4 YY    0.118739   0.053780  -0.037586   0.051336   0.040514
   66  BR 4 ZZ   -0.070426  -0.121981  -0.063591  -0.110142  -0.187972
   67  BR 4 XY   -0.008301   0.086877  -0.003719  -0.084066  -0.107435
   68  BR 4 XZ    0.088090   0.103821   0.199031  -0.138110  -0.030189
   69  BR 4 YZ    0.103821   0.207973  -0.138110   0.039555  -0.052289
   70  BR 5  S    0.000001   0.000000  -0.000003   0.000000  -0.000003
   71  BR 5  S    0.000007   0.000000   0.000125   0.000000   0.000036
   72  BR 5  X    0.000258   0.000000   0.000064   0.000000  -0.000003
   73  BR 5  Y    0.000000  -0.000349   0.000000  -0.000033   0.000000
   74  BR 5  Z   -0.001180   0.000000  -0.000080   0.000000   0.000091
   75  BR 5  S    0.000025   0.000000   0.000962   0.000000   0.000384
   76  BR 5  X   -0.000741   0.000000  -0.000223   0.000000  -0.000003
   77  BR 5  Y    0.000000   0.000960   0.000000   0.000069   0.000000
   78  BR 5  Z    0.003367   0.000000   0.000252   0.000000  -0.000281
   79  BR 5  S    0.000084   0.000000   0.003145   0.000000   0.001110
   80  BR 5  X    0.000523   0.000000   0.000986   0.000000   0.000271
   81  BR 5  Y    0.000000   0.000186   0.000000   0.000463   0.000000
   82  BR 5  Z   -0.001890   0.000000  -0.000616   0.000000   0.000583
   83  BR 5  S   -0.000288   0.000000   0.005789   0.000000   0.001621
   84  BR 5  X   -0.000104   0.000000  -0.004392   0.000000  -0.001147
   85  BR 5  Y    0.000000  -0.001043   0.000000  -0.000774   0.000000
   86  BR 5  Z    0.001736   0.000000   0.000128   0.000000  -0.000813
   87  BR 5 XX   -0.260916   0.000000   0.021015   0.000000  -0.024670
   88  BR 5 YY    0.001246   0.000000  -0.255182   0.000000   0.372978
   89  BR 5 ZZ    0.259703   0.000000   0.234880   0.000000  -0.348023
   90  BR 5 XY    0.000000   0.186700   0.000000  -0.143624   0.000000
   91  BR 5 XZ    0.494033   0.000000  -0.074410   0.000000   0.111739
   92  BR 5 YZ    0.000000   0.051901   0.000000   0.515857   0.000000
   93  BR 5 XX   -0.141488   0.000000   0.011666   0.000000  -0.013204
   94  BR 5 YY    0.000686   0.000000  -0.137660   0.000000   0.201667
   95  BR 5 ZZ    0.140852   0.000000   0.127182   0.000000  -0.187972
   96  BR 5 XY    0.000000   0.101255   0.000000  -0.077625   0.000000
   97  BR 5 XZ    0.267914   0.000000  -0.040183   0.000000   0.060378
   98  BR 5 YZ    0.000000   0.028149   0.000000   0.278769   0.000000

                     41         42         43         44         45
                   -2.5924    -2.5924    -2.5924    -0.8808    -0.7912
                     E          E          A2         A1         E   
    1  H  1  S    0.000000   0.000000   0.000000  -0.074966   0.000000
    2  H  1  S    0.000000   0.000000   0.000000   0.000344   0.000000
    3  C  2  S    0.000000   0.000000   0.000000   0.138158   0.000000
    4  C  2  S    0.000000   0.000000   0.000000  -0.247679   0.000000
    5  C  2  X    0.000286   0.000000   0.000000   0.000000  -0.125579
    6  C  2  Y    0.000000   0.000286   0.000000   0.000000   0.000000
    7  C  2  Z    0.000000   0.000000   0.000000  -0.010462   0.000000
    8  C  2  S    0.000000   0.000000   0.000000  -0.328220   0.000000
    9  C  2  X   -0.001062   0.000000   0.000000   0.000000  -0.068826
   10  C  2  Y    0.000000  -0.001062   0.000000   0.000000   0.000000
   11  C  2  Z    0.000000   0.000000   0.000000  -0.015057   0.000000
[...]
 TOTAL ELECTRON NUMBER             =       112.0000669780
 ...... END OF RHF CALCULATION ......
 STEP CPU TIME =    33.97 TOTAL CPU TIME =      566.2 (    9.4 MIN)
 TOTAL WALL CLOCK TIME=      587.6 SECONDS, CPU UTILIZATION IS  96.35%
 ..... END OF 1-ELECTRON GRADIENT ......
 STEP CPU TIME =     0.11 TOTAL CPU TIME =      566.3 (    9.4 MIN)
 TOTAL WALL CLOCK TIME=      587.7 SECONDS, CPU UTILIZATION IS  96.35%

 GRID DFT GRADIENT REQUIRES    234960 WORDS OF MEMORY.
 STEP CPU TIME =    12.84 TOTAL CPU TIME =      579.1 (    9.7 MIN)
 TOTAL WALL CLOCK TIME=      600.6 SECONDS, CPU UTILIZATION IS  96.43%

 ...... END OF 2-ELECTRON GRADIENT ......
 STEP CPU TIME =    17.00 TOTAL CPU TIME =      596.1 (    9.9 MIN)
 TOTAL WALL CLOCK TIME=      617.6 SECONDS, CPU UTILIZATION IS  96.53%

          ---------------------
          ELECTROSTATIC MOMENTS
          ---------------------

 POINT   1           X           Y           Z (BOHR)    CHARGE
                 0.000000    0.003160    0.000000        0.00 (A.U.)
         DX          DY          DZ         /D/  (DEBYE)
     0.000021   -0.003333   -1.258759    1.258763
  $VIB   
          IVIB=   1 IATOM=   5 ICOORD=   2 E=    -7759.6696489787
 -3.349746644E-07 3.135162114E-05 1.956384769E-05-9.503311287E-07-2.003077611E-04
 -1.968395607E-05 1.651539808E-04-3.337392502E-05 1.924154893E-05-1.734240234E-04
 -4.948442620E-05-1.954899623E-05 9.555348364E-06 2.518144912E-04 4.275556681E-07
  2.147744019E-05-3.333344277E-03-1.258758556E+00
1   ATOM  5
                                        -------------------
   COORD  3                             NUCLEAR COORDINATES
                                        -------------------
     VIB  1

                       ATOM             X              Y              Z

                 1  H                0.000000       0.000000      -3.077913
                 2  C                0.000000       0.000000      -1.031045
                 3  BR              -1.801944       3.121059       0.065361
                 4  BR              -1.801944      -3.121059       0.065361
                 5  BR               3.603888       0.000000       0.075361
 ...... END OF ONE-ELECTRON INTEGRALS ......
 STEP CPU TIME =     0.03 TOTAL CPU TIME =      596.2 (    9.9 MIN)
 TOTAL WALL CLOCK TIME=      617.6 SECONDS, CPU UTILIZATION IS  96.53%
 TOTAL NUMBER OF NONZERO TWO-ELECTRON INTEGRALS =             4062871
        271 INTEGRAL RECORDS WERE STORED ON DISK FILE  8.
  ...... END OF TWO-ELECTRON INTEGRALS .....
 STEP CPU TIME =     2.61 TOTAL CPU TIME =      598.8 (   10.0 MIN)
 TOTAL WALL CLOCK TIME=      621.6 SECONDS, CPU UTILIZATION IS  96.33%

          --------------------------
             R-B3LYP SCF CALCULATION
          --------------------------
           DENSITY MATRIX CONV=  1.00E-05
     DFT GRID SWITCH THRESHOLD=  3.00E-04
      DFT SWITCH OFF THRESHOLD=  5.00E-03

     EXCHANGE FUNCTIONAL   =B88&HFX   
     CORRELATION FUNCTIONAL=LYP88&VWN5
     DFT THRESHOLD         =.723E-08

 ITER EX DEM     TOTAL ENERGY        E CHANGE  DENSITY CHANGE    DIIS ERROR
          * * *   INITIATING DIIS PROCEDURE   * * *
   1  0  0    -7759.6696463809 -7759.6696463809   0.001612547   0.000298654
   2  1  0    -7759.6696484494    -0.0000020685   0.000453805   0.000166762
   3  2  0    -7759.6696482979     0.0000001515   0.000272675   0.000250904
   4  3  0    -7759.6696486030    -0.0000003051   0.000033252   0.000017992
   5  4  0    -7759.6696486046    -0.0000000016   0.000018661   0.000006752
   6  5  0    -7759.6696486050    -0.0000000004   0.000001713   0.000000878
   7  6  0    -7759.6696486050     0.0000000000   0.000000641   0.000000136

          -----------------
          DENSITY CONVERGED
          -----------------
     TIME TO FORM FOCK OPERATORS=      39.5 SECONDS (       5.6 SEC/ITER)
     TIME TO SOLVE SCF EQUATIONS=       0.2 SECONDS (       0.0 SEC/ITER)

 FINAL R-B3LYP ENERGY IS    -7759.6696486050 AFTER   7 ITERATIONS
 DFT EXCHANGE + CORRELATION ENERGY =      -224.5599930109
 TOTAL ELECTRON NUMBER             =       112.0000770822
 ...... END OF RHF CALCULATION ......
 STEP CPU TIME =    39.88 TOTAL CPU TIME =      638.7 (   10.6 MIN)
 TOTAL WALL CLOCK TIME=      661.5 SECONDS, CPU UTILIZATION IS  96.54%
 ..... END OF 1-ELECTRON GRADIENT ......
 STEP CPU TIME =     0.11 TOTAL CPU TIME =      638.8 (   10.6 MIN)
 TOTAL WALL CLOCK TIME=      661.6 SECONDS, CPU UTILIZATION IS  96.55%

 GRID DFT GRADIENT REQUIRES    234960 WORDS OF MEMORY.
 STEP CPU TIME =    12.83 TOTAL CPU TIME =      651.6 (   10.9 MIN)
 TOTAL WALL CLOCK TIME=      674.5 SECONDS, CPU UTILIZATION IS  96.61%

 ...... END OF 2-ELECTRON GRADIENT ......
 STEP CPU TIME =    16.97 TOTAL CPU TIME =      668.6 (   11.1 MIN)
 TOTAL WALL CLOCK TIME=      691.4 SECONDS, CPU UTILIZATION IS  96.69%

          ---------------------
          ELECTROSTATIC MOMENTS
          ---------------------

 POINT   1           X           Y           Z (BOHR)    CHARGE
                 0.000000    0.000000    0.003160        0.00 (A.U.)
         DX          DY          DZ         /D/  (DEBYE)
    -0.002774   -0.000023   -1.259808    1.259811
  $VIB   
          IVIB=   1 IATOM=   5 ICOORD=   3 E=    -7759.6696486050
 -2.570592017E-04 1.088247420E-08 1.032416145E-05-1.595697352E-04 1.517905498E-07
 -4.223460772E-04 1.715467830E-05 5.128942469E-06 4.603810961E-05 1.711655633E-05
 -5.259400885E-06 4.610249570E-05 3.823577023E-04-3.221460878E-08 3.198813105E-04
 -2.774075576E-03-2.318767853E-05-1.259807788E+00
 ...... END OF NUMERICAL HESSIAN CALCULATION ......
 STEP CPU TIME =     0.02 TOTAL CPU TIME =      668.6 (   11.1 MIN)
 TOTAL WALL CLOCK TIME=      691.4 SECONDS, CPU UTILIZATION IS  96.69%

          ---------------
          ENERGY GRADIENT
          ---------------

      ATOM                 E'X               E'Y               E'Z 
    1 H                0.000000000       0.000000000       0.000019448
    2 C                0.000000000       0.000000000      -0.000019163
    3 BR              -0.000004703       0.000008145      -0.000000095
    4 BR              -0.000004703      -0.000008145      -0.000000095
    5 BR               0.000009406       0.000000000      -0.000000095

          -------------------------------
          CARTESIAN FORCE CONSTANT MATRIX
          -------------------------------

                                   1                          2
                               H                          C         
                          X        Y        Z        X        Y        Z
  1   H            X 0.052538-0.000066-0.000265-0.030284-0.000018 0.000304
                   Y-0.000066 0.052404-0.000268 0.000007-0.030263 0.000309
                   Z-0.000265-0.000268 0.374438-0.000353-0.000326-0.365697
  2   C            X-0.030284 0.000007-0.000353 0.179608-0.000531 0.000550
                   Y-0.000018-0.030263-0.000326-0.000531 0.178603 0.000566
                   Z 0.000304 0.000309-0.365697 0.000550 0.000566 0.479928
  3   BR           X-0.002118 0.009127-0.000392-0.034522 0.025497 0.017681
                   Y 0.009044-0.012627 0.000678 0.025050-0.064065-0.030560
                   Z 0.012513-0.021706-0.000898 0.008611-0.015101-0.040219
  4   BR           X-0.002106-0.009029-0.000384-0.034489-0.024898 0.017634
                   Y-0.009060-0.012584-0.000691-0.025092-0.063269 0.030580
                   Z 0.012517 0.021641-0.000894 0.008628 0.014820-0.040216
  5   BR           X-0.017890-0.000013 0.000792-0.078875 0.000048-0.035299
                   Y-0.000018 0.003118 0.000004-0.000049-0.020025-0.000028
                   Z-0.025069 0.000024-0.000891-0.017467 0.000057-0.040213

                                   3                          4
                               BR                         BR        
                          X        Y        Z        X        Y        Z
  3   BR           X 0.052999-0.048176-0.018704 0.004114-0.002683-0.000860
                   Y-0.048176 0.108614 0.032346 0.002649-0.028780-0.002189
                   Z-0.018704 0.032346 0.031998-0.000862 0.002194 0.004617
  4   BR           X 0.004114 0.002649-0.000862 0.052989 0.048170-0.018661
                   Y-0.002683-0.028780 0.002194 0.048170 0.108624-0.032371
                   Z-0.000860-0.002189 0.004617-0.018661-0.032371 0.031998
  5   BR           X-0.020542 0.011586-0.001466-0.020572-0.011569-0.001469
                   Y 0.016918-0.004124 0.001839-0.016901-0.004094-0.001844
                   Z 0.002331-0.000350 0.004617 0.002326 0.000350 0.004617

                                   5
                               BR        
                          X        Y        Z
  5   BR           X 0.136432 0.000006 0.037365
                   Y 0.000006 0.025181 0.000025
                   Z 0.037365 0.000025 0.031998

          ------------------------          ----------------
          DIPOLE DERIVATIVE TENSOR          (DEBYE/ANGSTROM)
          ------------------------          ----------------

        ATOM                 MU-X           MU-Y           MU-Z
     H          D/DX    -0.611598315   -0.004383162    0.003727961
                D/DY     0.007707220   -0.624988183    0.003728612
                D/DZ     0.008578460   -0.004493273    0.256616154
     C          D/DX     6.577751545   -0.004367335    0.001753017
                D/DY     0.007035098    6.563624543    0.001714294
                D/DZ     0.008215510   -0.004295302    0.352031541
     BR         D/DX    -1.307155482    1.168642898    0.068869003
                D/DY     1.177080966   -2.661089390   -0.123594972
                D/DZ     0.265906917   -0.451800618   -0.196120837
     BR         D/DX    -1.306877685   -1.176920580    0.072601884
                D/DY    -1.168482512   -2.661367188    0.121439792
                D/DZ     0.258317354    0.456182454   -0.196120837
     BR         D/DX    -3.338334142   -0.004379420   -0.141470887
                D/DY     0.004058647   -0.629910731    0.002155180
                D/DZ    -0.524224271   -0.004381836   -0.196120837

          --------------------------------------------------------
          NORMAL COORDINATE ANALYSIS IN THE HARMONIC APPROXIMATION
          --------------------------------------------------------

          ATOMIC WEIGHTS (AMU)

    1     H                 1.00782
    2     C                12.00000
    3     BR               78.91830
    4     BR               78.91830
    5     BR               78.91830

 MODES 1 TO 6 ARE TAKEN AS ROTATIONS AND TRANSLATIONS.

     FREQUENCIES IN CM**-1, IR INTENSITIES IN DEBYE**2/AMU-ANGSTROM**2,
     REDUCED MASSES IN AMU.

                          1           2           3           4           5
       FREQUENCY:         3.37        2.80        2.48        0.94        5.73  
    REDUCED MASS:     48.64632    41.49192    42.17188    78.85308    65.77202
    IR INTENSITY:      0.00005     0.00029     0.00030     0.00000     0.00272

  1   H            X -0.02629847  0.07262696  0.04198371 -0.00037408 -0.01755230
                   Y -0.01890407 -0.04795975  0.07122433 -0.00252422 -0.04750051
                   Z  0.05828863  0.00866381  0.02101353 -0.00060770 -0.00067653
  2   C            X -0.02000142  0.05585839  0.03270726 -0.00030157  0.00012485
                   Y -0.01428586 -0.03709169  0.05504064 -0.00197105 -0.00055015
                   Z  0.05931379  0.00877215  0.02119874 -0.00061001 -0.00063996
  3   BR           X -0.01704544  0.04863731  0.02617996 -0.05651858  0.00901974
                   Y -0.01206619 -0.03161437  0.04644133 -0.03417335  0.02304093
                   Z  0.05752960 -0.02113636  0.03691843 -0.00140149 -0.05449630
  4   BR           X -0.01684580  0.04720639  0.02968070  0.05598576  0.00902691
                   Y -0.01222377 -0.03139446  0.04630673 -0.03420163  0.02304074
                   Z  0.07096154  0.01038352 -0.01012095  0.00020509  0.08304910
  5   BR           X -0.01699002  0.04825819  0.02840387 -0.00024610  0.00899187
                   Y -0.01187451 -0.03237704  0.04901647  0.06325811  0.02312883
                   Z  0.04841003  0.03697976  0.03666757 -0.00077674 -0.03051344

 TRANS. SAYVETZ    X -4.28198390 12.11577120  7.08481365 -0.06546685  2.11764274
                   Y -3.04452065 -8.02112634 11.92008497 -0.43001138  5.40750062
                   Z 14.73124973  2.18378151  5.28411688 -0.16365033 -0.16309183
               TOTAL 15.64014740 14.69351153 14.83930259  0.46473339  5.80965341

   ROT. SAYVETZ    X -3.35725344 -7.87929170 11.75689146 -0.40153799-34.38977497
                   Y  4.57042143-12.21973123 -6.71820558  0.05165312 12.93117281
                   Z  0.12609915 -0.60063192  1.61380606 55.42556051  0.02679065
               TOTAL  5.67237197 14.55217605 13.63683076 55.42703906 36.74061200

                          6           7           8           9          10
       FREQUENCY:         5.77      149.47      149.52      217.71      524.83  
    REDUCED MASS:     66.00918    56.15661    56.03894    51.45541     7.14371
    IR INTENSITY:      0.00276     0.00006     0.00007     0.00016     0.03085

  1   H            X  0.04701899  0.06091610 -0.00250201 -0.00010044 -0.00113156
                   Y -0.01729103 -0.00227799 -0.06114125 -0.00010250 -0.00130962
                   Z  0.00036284  0.00011338 -0.00010443  0.05997434  0.26396156
  2   C            X  0.00024513  0.04156921 -0.00175106  0.00006658 -0.00143024
                   Y  0.00030435 -0.00162670 -0.04169457  0.00005587 -0.00169983
                   Z  0.00034708  0.00003455 -0.00002152  0.06154619  0.26270267
  3   BR           X -0.02334715 -0.03253030  0.05686445 -0.03152544  0.00740133
                   Y  0.00914095 -0.05652143 -0.02751499  0.05476125 -0.01271987
                   Z -0.06507492  0.00095750  0.00156038 -0.00351808 -0.01443767
  4   BR           X -0.02332890 -0.03679436 -0.05411366 -0.03182217  0.00755555
                   Y  0.00915935  0.05421204 -0.03151235 -0.05511710  0.01307552
                   Z -0.01348252  0.00087005 -0.00163607 -0.00338530 -0.01458994
  5   BR           X -0.02330567  0.06167236 -0.00253165  0.06300532 -0.01462036
                   Y  0.00916331  0.00253791  0.06659748  0.00001242  0.00002535
                   Z  0.07961668 -0.00186151  0.00007012 -0.00356640 -0.01439652

 TRANS. SAYVETZ    X -5.47251048 -0.04368339 -0.00623974 -0.02631546  0.00825446
                   Y  2.15360761 -0.00378169  0.03546742 -0.02653606  0.00835017
                   Z  0.08812346 -0.00215165 -0.00080297 -0.02725929 -0.00849870
               TOTAL  5.88168024  0.04389954  0.03602106  0.04625727  0.01449446

   ROT. SAYVETZ    X-12.89918699 -0.00683376  0.04273866 -0.03055936  0.01044720
                   Y-34.32522941  0.04657707 -0.00014928  0.03034911 -0.01041546
                   Z  0.00823957 -0.00005149  0.00036706 -0.01895224 -0.00538022
               TOTAL 36.66893054  0.04707575  0.04274049  0.04705454  0.01570262

                         11          12          13          14          15
       FREQUENCY:       610.80      613.49     1196.39     1198.41     3259.55  
    REDUCED MASS:      9.10828     9.10712     1.05651     1.05636     1.08516
    IR INTENSITY:      3.22330     3.23626     0.97585     0.96184     0.04717

  1   H            X  0.07600419  0.17232873  0.36290913  0.90060648 -0.00078101
                   Y  0.17237085 -0.07587759  0.90054893 -0.36296062 -0.00079162
                   Z  0.00257922  0.00080817  0.00095128  0.00039574  0.95657701
  2   C            X  0.10893299  0.24777200 -0.02290981 -0.05681411 -0.00007721
                   Y  0.24766616 -0.10899749 -0.05687511  0.02284646 -0.00007180
                   Z  0.00203276  0.00058356 -0.00001840 -0.00000555 -0.08051626
  3   BR           X  0.00466277 -0.01198734  0.00164484 -0.00066771 -0.00005718
                   Y -0.01455367  0.01599344 -0.00123999  0.00239418  0.00009879
                   Z -0.00576434  0.00760448 -0.00339418  0.00431832  0.00007546
  4   BR           X -0.01183908 -0.00478716 -0.00163559  0.00065328 -0.00005625
                   Y -0.02142890 -0.00032660 -0.00256123 -0.00086845 -0.00009830
                   Z  0.00935814  0.00101972  0.00543998  0.00077015  0.00007440
  5   BR           X -0.01016316 -0.02273713 -0.00115095 -0.00283755  0.00011479
                   Y -0.00370072  0.00159801  0.00094031 -0.00038113  0.00000016
                   Z -0.00393295 -0.00873117 -0.00205365 -0.00509168  0.00007605

 TRANS. SAYVETZ    X  0.01539324  0.02875073  0.00073069  0.00081067 -0.00160628
                   Y  0.01397525 -0.02192911 -0.00068429 -0.00131356 -0.00160852
                   Z  0.00022770 -0.00062507  0.00011812  0.00007812  0.01569580
               TOTAL  0.02079209  0.03616464  0.00100802  0.00154555  0.01585956

   ROT. SAYVETZ    X  0.07884878 -0.05111865 -0.07136139  0.02480660 -0.00308637
                   Y -0.04334068 -0.09426718  0.02683080  0.06629516  0.00306633
                   Z -0.00012961  0.00003641 -0.00000414  0.00000262  0.00020512
               TOTAL  0.08997533  0.10723534  0.07623870  0.07078429  0.00435547

 REFERENCE ON SAYVETZ CONDITIONS - A. SAYVETZ, J.CHEM.PHYS., 7, 383-389(1939).

 NOTE - THE MODES J,K ARE ORTHONORMALIZED ACCORDING TO
 SUM ON I   M(I) * (X(I,J)*X(I,K) + Y(I,J)*Y(I,K) + Z(I,J)*Z(I,K)) = DELTA(J,K)

     -------------------------------
     THERMOCHEMISTRY AT T=  298.15 K
     -------------------------------

 USING IDEAL GAS, RIGID ROTOR, HARMONIC NORMAL MODE APPROXIMATIONS.
 P=  1.01325E+05 PASCAL.
 ALL FREQUENCIES ARE SCALED BY   1.00000
 THE MOMENTS OF INERTIA ARE (IN AMU*BOHR**2)
   1560.80323  1560.80323  3074.97496
 THE ROTATIONAL SYMMETRY NUMBER IS  3.0
 THE ROTATIONAL CONSTANTS ARE (IN GHZ)
      1.15523     1.15523     0.58637
 THE HARMONIC ZERO POINT ENERGY IS (SCALED BY   1.000)
        0.018043 HARTREE/MOLECULE     3960.077328 CM**-1/MOLECULE 
       11.322441 KCAL/MOL               47.373092 KJ/MOL

               Q               LN Q
 ELEC.     1.00000E+00       0.000000
 TRANS.    1.55148E+08      18.859888
 ROT.      3.26580E+05      12.696429
 VIB.      7.08313E+00       1.957716
 TOT.      3.58888E+14      33.514033

              E         H         G         CV        CP        S
           KJ/MOL    KJ/MOL    KJ/MOL   J/MOL-K   J/MOL-K   J/MOL-K
 ELEC.      0.000     0.000     0.000     0.000     0.000     0.000
 TRANS.     3.718     6.197   -46.753    12.472    20.786   177.595
 ROT.       3.718     3.718   -31.474    12.472    12.472   118.035
 VIB.      53.593    53.593    42.520    38.664    38.664    37.138
 TOTAL     61.030    63.508   -35.706    63.607    71.922   332.768
E(T)-E(0) = H(T)-H(0) =  6219.605

              E         H         G         CV        CP        S
         KCAL/MOL  KCAL/MOL  KCAL/MOL CAL/MOL-K CAL/MOL-K CAL/MOL-K
 ELEC.      0.000     0.000     0.000     0.000     0.000     0.000
 TRANS.     0.889     1.481   -11.174     2.981     4.968    42.446
 ROT.       0.889     0.889    -7.522     2.981     2.981    28.211
 VIB.      12.809    12.809    10.163     9.241     9.241     8.876
 TOTAL     14.586    15.179    -8.534    15.203    17.190    79.533
E(T)-E(0) = H(T)-H(0) =  1486.521
 ......END OF NORMAL COORDINATE ANALYSIS......
 STEP CPU TIME =     0.05 TOTAL CPU TIME =      668.6 (   11.1 MIN)
 TOTAL WALL CLOCK TIME=      691.5 SECONDS, CPU UTILIZATION IS  96.69%
     1122887  WORDS OF DYNAMIC MEMORY USED
 EXECUTION OF GAMESS TERMINATED NORMALLY Sun Jun 17 10:50:40 2007
 DDI: 262808 bytes (0.3 MB / 0 MWords) used by master data server.

 ----------------------------------------
 CPU timing information for all processes
 ========================================
 0: 664.203000 + 4.625000 = 668.828000
 1: 0.015000 + 0.015000 = 0.030000
 ----------------------------------------
 ddikick.x: exited gracefully.
----- accounting info -----
