 Entering Gaussian System, Link 0=/usr/local/apps/g03/g03
 Input=rhb-mp-pb-molekel.com
 Output=rhb-mp-pb-molekel.log
 Initial command:
 /usr/local/apps/g03/l1.exe /tmp/r0803/rhb-mp-pb-molekel/Gau-17489.inp -scrdir=/tmp/r0803/rhb-mp-pb-molekel/
 Entering Link 1 = /usr/local/apps/g03/l1.exe PID=     17490.
  
 Copyright (c) 1988,1990,1992,1993,1995,1998,2003,2004, Gaussian, Inc.
                  All Rights Reserved.
  
 This is the Gaussian(R) 03 program.  It is based on the
 the Gaussian(R) 98 system (copyright 1998, Gaussian, Inc.),
 the Gaussian(R) 94 system (copyright 1995, Gaussian, Inc.),
 the Gaussian 92(TM) system (copyright 1992, Gaussian, Inc.),
 the Gaussian 90(TM) system (copyright 1990, Gaussian, Inc.),
 the Gaussian 88(TM) system (copyright 1988, Gaussian, Inc.),
 the Gaussian 86(TM) system (copyright 1986, Carnegie Mellon
 University), and the Gaussian 82(TM) system (copyright 1983,
 Carnegie Mellon University). Gaussian is a federally registered
 trademark of Gaussian, Inc.
  
 This software contains proprietary and confidential information,
 including trade secrets, belonging to Gaussian, Inc.
  
 This software is provided under written license and may be
 used, copied, transmitted, or stored only in accord with that
 written license.
  
 The following legend is applicable only to US Government
 contracts under FAR:
  
                    RESTRICTED RIGHTS LEGEND
  
 Use, reproduction and disclosure by the US Government is
 subject to restrictions as set forth in subparagraphs (a)
 and (c) of the Commercial Computer Software - Restricted
 Rights clause in FAR 52.227-19.
  
 Gaussian, Inc.
 340 Quinnipiac St., Bldg. 40, Wallingford CT 06492
  
  
 ---------------------------------------------------------------
 Warning -- This program may not be used in any manner that
 competes with the business of Gaussian, Inc. or will provide
 assistance to any competitor of Gaussian, Inc.  The licensee
 of this program is prohibited from giving any competitor of
 Gaussian, Inc. access to this program.  By using this program,
 the user acknowledges that Gaussian, Inc. is engaged in the
 business of creating and licensing software in the field of
 computational chemistry and represents and warrants to the
 licensee that it is not a competitor of Gaussian, Inc. and that
 it will not use this program in any manner prohibited above.
 ---------------------------------------------------------------
  

 Cite this work as:
 Gaussian 03, Revision D.01,
 M. J. Frisch, G. W. Trucks, H. B. Schlegel, G. E. Scuseria, 
 M. A. Robb, J. R. Cheeseman, J. A. Montgomery, Jr., T. Vreven, 
 K. N. Kudin, J. C. Burant, J. M. Millam, S. S. Iyengar, J. Tomasi, 
 V. Barone, B. Mennucci, M. Cossi, G. Scalmani, N. Rega, 
 G. A. Petersson, H. Nakatsuji, M. Hada, M. Ehara, K. Toyota, 
 R. Fukuda, J. Hasegawa, M. Ishida, T. Nakajima, Y. Honda, O. Kitao, 
 H. Nakai, M. Klene, X. Li, J. E. Knox, H. P. Hratchian, J. B. Cross, 
 V. Bakken, C. Adamo, J. Jaramillo, R. Gomperts, R. E. Stratmann, 
 O. Yazyev, A. J. Austin, R. Cammi, C. Pomelli, J. W. Ochterski, 
 P. Y. Ayala, K. Morokuma, G. A. Voth, P. Salvador, J. J. Dannenberg, 
 V. G. Zakrzewski, S. Dapprich, A. D. Daniels, M. C. Strain, 
 O. Farkas, D. K. Malick, A. D. Rabuck, K. Raghavachari, 
 J. B. Foresman, J. V. Ortiz, Q. Cui, A. G. Baboul, S. Clifford, 
 J. Cioslowski, B. B. Stefanov, G. Liu, A. Liashenko, P. Piskorz, 
 I. Komaromi, R. L. Martin, D. J. Fox, T. Keith, M. A. Al-Laham, 
 C. Y. Peng, A. Nanayakkara, M. Challacombe, P. M. W. Gill, 
 B. Johnson, W. Chen, M. W. Wong, C. Gonzalez, and J. A. Pople, 
 Gaussian, Inc., Wallingford CT, 2004.
 
 ******************************************
 Gaussian 03:  IA32L-G03RevD.01 13-Oct-2005
                 6-Jun-2007 
 ******************************************
 %chk=rhb-mp-pb-molekel.chk
 %mem=400mb
 %rwf=/tmp/r0803/rhb-mp-pb-molekel/1.rwf
 %nosave
 --------------------------------------
 #P PBE1PBE/6-31+g* gfoldprint POP=FULL
 --------------------------------------

 Warning!  SCF SP cutoffs with diffuse functions may be unreliable.
 Consider SCF=Tight

 1/38=1/1;
 2/17=6,18=5,40=1/2;
 3/5=1,6=6,7=11,11=2,16=1,24=1,25=1,30=1,74=-13/1,2,3;
 4//1;
 5/5=2,32=1,38=5/2;
 6/7=3,28=1/1;
 99/5=1,9=1/99;
 Leave Link    1 at Wed Jun  6 10:32:20 2007, MaxMem=   52428800 cpu:       0.1
 (Enter /usr/local/apps/g03/l101.exe)
 --------------------------------------------
 rhb geometria MP2/6-31G* - PBE0 wizualizacja
 --------------------------------------------
 Symbolic Z-matrix:
 Charge =  0 Multiplicity = 1
 C                     1.8286    1.1415    0.3285 
 N                     1.1081    0.        0. 
 C                     1.8286   -1.1414   -0.3285 
 C                     3.2072   -1.1527   -0.3029 
 C                     3.9391    0.        0. 
 C                     3.2072    1.1527    0.3029 
 C                    -0.2738    0.        0. 
 C                    -0.9928   -1.1948    0.2948 
 C                    -2.3612   -1.191     0.3109 
 C                    -3.1494    0.        0. 
 C                    -2.3612    1.191    -0.3109 
 C                    -0.9928    1.1948   -0.2948 
 O                    -4.3975    0.        0. 
 H                     1.236     1.9816    0.6649 
 H                     3.7081    2.0791    0.5703 
 H                     5.024     0.        0. 
 H                     3.7081   -2.0791   -0.5703 
 H                     1.236    -1.9816   -0.6649 
 H                    -0.4533   -2.0835    0.6178 
 H                    -2.9149   -2.0831    0.5932 
 H                    -2.9149    2.0831   -0.5932 
 H                    -0.4533    2.0835   -0.6178 
 
                    Isotopes and Nuclear Properties:
 (Nuclear quadrupole moments (NQMom) in fm**2, nuclear magnetic moments (NMagM)
  in nuclear magnetons)

  Atom         1           2           3           4           5           6           7           8           9          10
 IAtWgt=          12          14          12          12          12          12          12          12          12          12
 AtmWgt=  12.0000000  14.0030740  12.0000000  12.0000000  12.0000000  12.0000000  12.0000000  12.0000000  12.0000000  12.0000000
 NucSpn=           0           2           0           0           0           0           0           0           0           0
 AtZEff=   0.0000000   0.0000000   0.0000000   0.0000000   0.0000000   0.0000000   0.0000000   0.0000000   0.0000000   0.0000000
 NQMom=    0.0000000   2.0440000   0.0000000   0.0000000   0.0000000   0.0000000   0.0000000   0.0000000   0.0000000   0.0000000
 NMagM=    0.0000000   0.4037610   0.0000000   0.0000000   0.0000000   0.0000000   0.0000000   0.0000000   0.0000000   0.0000000

  Atom        11          12          13          14          15          16          17          18          19          20
 IAtWgt=          12          12          16           1           1           1           1           1           1           1
 AtmWgt=  12.0000000  12.0000000  15.9949146   1.0078250   1.0078250   1.0078250   1.0078250   1.0078250   1.0078250   1.0078250
 NucSpn=           0           0           0           1           1           1           1           1           1           1
 AtZEff=   0.0000000   0.0000000   0.0000000   0.0000000   0.0000000   0.0000000   0.0000000   0.0000000   0.0000000   0.0000000
 NQMom=    0.0000000   0.0000000   0.0000000   0.0000000   0.0000000   0.0000000   0.0000000   0.0000000   0.0000000   0.0000000
 NMagM=    0.0000000   0.0000000   0.0000000   2.7928460   2.7928460   2.7928460   2.7928460   2.7928460   2.7928460   2.7928460

  Atom        21          22
 IAtWgt=           1           1
 AtmWgt=   1.0078250   1.0078250
 NucSpn=           1           1
 AtZEff=   0.0000000   0.0000000
 NQMom=    0.0000000   0.0000000
 NMagM=    2.7928460   2.7928460
 Leave Link  101 at Wed Jun  6 10:32:21 2007, MaxMem=   52428800 cpu:       0.1
 (Enter /usr/local/apps/g03/l202.exe)
                          Input orientation:                          
 ---------------------------------------------------------------------
 Center     Atomic     Atomic              Coordinates (Angstroms)
 Number     Number      Type              X           Y           Z
 ---------------------------------------------------------------------
    1          6             0        1.828600    1.141500    0.328500
    2          7             0        1.108100    0.000000    0.000000
    3          6             0        1.828600   -1.141400   -0.328500
    4          6             0        3.207200   -1.152700   -0.302900
    5          6             0        3.939100    0.000000    0.000000
    6          6             0        3.207200    1.152700    0.302900
    7          6             0       -0.273800    0.000000    0.000000
    8          6             0       -0.992800   -1.194800    0.294800
    9          6             0       -2.361200   -1.191000    0.310900
   10          6             0       -3.149400    0.000000    0.000000
   11          6             0       -2.361200    1.191000   -0.310900
   12          6             0       -0.992800    1.194800   -0.294800
   13          8             0       -4.397500    0.000000    0.000000
   14          1             0        1.236000    1.981600    0.664900
   15          1             0        3.708100    2.079100    0.570300
   16          1             0        5.024000    0.000000    0.000000
   17          1             0        3.708100   -2.079100   -0.570300
   18          1             0        1.236000   -1.981600   -0.664900
   19          1             0       -0.453300   -2.083500    0.617800
   20          1             0       -2.914900   -2.083100    0.593200
   21          1             0       -2.914900    2.083100   -0.593200
   22          1             0       -0.453300    2.083500   -0.617800
 ---------------------------------------------------------------------
                    Distance matrix (angstroms):
                    1          2          3          4          5
     1  C    0.000000
     2  N    1.389264   0.000000
     3  C    2.375559   1.389182   0.000000
     4  C    2.750010   2.413853   1.378884   0.000000
     5  C    2.421806   2.831000   2.421759   1.398622   0.000000
     6  C    1.378883   2.413853   2.749927   2.383666   1.398622
     7  C    2.414751   1.381900   2.414703   3.679379   4.212900
     8  C    3.663295   2.434797   2.889923   4.242525   5.083118
     9  C    4.795340   3.681193   4.238598   5.602258   6.419417
    10  C    5.117755   4.257500   5.117733   6.467366   7.088500
    11  C    4.238597   3.681193   4.795292   6.041529   6.419417
    12  C    2.889921   2.434797   3.663231   4.811530   5.083118
    13  O    6.338395   5.505600   6.338377   7.697527   8.336600
    14  H    1.081715   2.094084   3.330337   3.827023   3.416955
    15  H    2.114257   3.377558   3.835620   3.384954   2.168239
    16  H    3.409034   3.915900   3.409001   2.172839   1.084900
    17  H    3.835704   3.377558   2.114301   1.086564   2.168239
    18  H    3.330431   2.094084   1.081793   2.168813   3.416955
    19  H    3.961236   2.675933   2.643880   3.887588   4.900595
    20  H    5.741855   4.568996   4.923121   6.256896   7.188081
    21  H    4.923102   4.568996   5.741799   6.930713   7.188081
    22  H    2.643845   2.675933   3.961154   4.896061   4.900595
                    6          7          8          9         10
     6  C    0.000000
     7  C    3.679379   0.000000
     8  C    4.811530   1.425277   0.000000
     9  C    6.041529   2.423299   1.368500   0.000000
    10  C    6.467366   2.875600   2.483018   1.461643   0.000000
    11  C    5.602258   2.423299   2.816280   2.461820   1.461643
    12  C    4.242525   1.425277   2.461263   2.816280   2.483018
    13  O    7.697527   4.123700   3.620281   2.379424   1.248100
    14  H    2.168813   2.578435   3.897953   4.809424   4.858041
    15  H    1.086564   4.528071   5.735223   6.899076   7.188408
    16  H    2.172839   5.297800   6.141363   7.487077   8.173400
    17  H    3.384954   4.528071   4.860951   6.196905   7.188408
    18  H    3.827023   2.578435   2.551005   3.810129   4.858041
    19  H    4.896061   2.180566   1.088658   2.128574   3.462890
    20  H    6.930713   3.415641   2.138361   1.087253   2.178573
    21  H    6.256896   3.415641   3.902261   3.441469   2.178573
    22  H    3.887588   2.180566   3.445454   3.901912   3.462890
                   11         12         13         14         15
    11  C    0.000000
    12  C    1.368500   0.000000
    13  O    2.379424   3.620281   0.000000
    14  H    3.810129   2.551005   6.008756   0.000000
    15  H    6.196905   4.860951   8.387410   2.475830   0.000000
    16  H    7.487077   6.141363   9.421500   4.326404   2.525766
    17  H    6.899076   5.735223   8.387410   4.911851   4.311797
    18  H    4.809424   3.897953   6.008756   4.180350   4.911851
    19  H    3.901912   3.445454   4.503261   4.402385   5.886149
    20  H    3.441469   3.902261   2.624747   5.810069   7.822312
    21  H    1.087253   2.138361   2.624747   4.338558   6.724424
    22  H    2.128574   1.088658   4.503261   2.123544   4.327684
                   16         17         18         19         20
    16  H    0.000000
    17  H    2.525766   0.000000
    18  H    4.326404   2.475830   0.000000
    19  H    5.892662   4.327684   2.123544   0.000000
    20  H    8.229054   6.724424   4.338558   2.461723   0.000000
    21  H    8.229054   7.822312   5.810069   4.988642   4.331832
    22  H    5.892662   5.886149   4.402385   4.346331   4.988642
                   21         22
    21  H    0.000000
    22  H    2.461723   0.000000
 Stoichiometry    C11H9NO
 Framework group  C1[X(C11H9NO)]
 Deg. of freedom    60
 Full point group                 C1
 Largest Abelian subgroup         C1      NOp   1
 Largest concise Abelian subgroup C1      NOp   1
                         Standard orientation:                         
 ---------------------------------------------------------------------
 Center     Atomic     Atomic              Coordinates (Angstroms)
 Number     Number      Type              X           Y           Z
 ---------------------------------------------------------------------
    1          6             0        1.783830    1.141490    0.328500
    2          7             0        1.063328   -0.000009    0.000000
    3          6             0        1.783825   -1.141410   -0.328500
    4          6             0        3.162425   -1.152713   -0.302900
    5          6             0        3.894328   -0.000015    0.000000
    6          6             0        3.162430    1.152687    0.302900
    7          6             0       -0.318572   -0.000006    0.000000
    8          6             0       -1.037575   -1.194805    0.294800
    9          6             0       -2.405975   -1.191002    0.310900
   10          6             0       -3.194172    0.000000    0.000000
   11          6             0       -2.405970    1.190998   -0.310900
   12          6             0       -1.037570    1.194795   -0.294800
   13          8             0       -4.442272    0.000002    0.000000
   14          1             0        1.191232    1.981591    0.664900
   15          1             0        3.663332    2.079086    0.570300
   16          1             0        4.979228   -0.000017    0.000000
   17          1             0        3.663324   -2.079114   -0.570300
   18          1             0        1.191224   -1.981609   -0.664900
   19          1             0       -0.498076   -2.083506    0.617800
   20          1             0       -2.959676   -2.083101    0.593200
   21          1             0       -2.959668    2.083099   -0.593200
   22          1             0       -0.498068    2.083494   -0.617800
 ---------------------------------------------------------------------
 Rotational constants (GHZ):      2.8422306      0.4200284      0.3725426
 Leave Link  202 at Wed Jun  6 10:32:23 2007, MaxMem=   52428800 cpu:       0.1
 (Enter /usr/local/apps/g03/l301.exe)
 Standard basis: 6-31+G(d) (6D, 7F)
 ***********************************************************************************************************************************
 *             ATOMIC CENTER             *        ATOMIC ORBITAL       *                     GAUSSIAN FUNCTIONS                    *
 ***********************************************************************************************************************************
 *                                       * FUNCTION    SHELL    SCALE  *                                                           *
 *    ATOM   X-COORD  Y-COORD  Z-COORD   *  NUMBER     TYPE     FACTOR *  EXPONENT    S-COEF      P-COEF      D-COEF      F-COEF   *
 ***********************************************************************************************************************************
 *     C      3.37095  2.15710  0.62078                                                                                            *
+                                                1     S         1.00                                                               
+                                                                      0.304752D+040.183474D-020.000000D+000.000000D+000.000000D+00 
 *                                                                     0.457370D+030.140373D-010.000000D+000.000000D+000.000000D+00*
 *                                                                     0.103949D+030.688426D-010.000000D+000.000000D+000.000000D+00*
 *                                                                     0.292102D+020.232184D+000.000000D+000.000000D+000.000000D+00*
 *                                                                     0.928666D+010.467941D+000.000000D+000.000000D+000.000000D+00*
 *                                                                     0.316393D+010.362312D+000.000000D+000.000000D+000.000000D+00*
 *                                           2-  5     SP        1.00                                                              *
+                                                                      0.786827D+01-.119332D+000.689991D-010.000000D+000.000000D+00 
 *                                                                     0.188129D+01-.160854D+000.316424D+000.000000D+000.000000D+00*
 *                                                                     0.544249D+000.114346D+010.744308D+000.000000D+000.000000D+00*
 *                                           6-  9     SP        1.00                                                              *
+                                                                      0.168714D+000.100000D+010.100000D+010.000000D+000.000000D+00 
 *                                          10- 13     SP        1.00                                                              *
+                                                                      0.438000D-010.100000D+010.100000D+010.000000D+000.000000D+00 
 *                                          14- 19     D         1.00                                                              *
+                                                                      0.800000D+000.000000D+000.000000D+000.100000D+010.000000D+00 
 *---------------------------------------------------------------------------------------------------------------------------------*
 *     N      2.00940 -0.00002  0.00000                                                                                            *
+                                               20     S         1.00                                                               
+                                                                      0.417351D+040.183477D-020.000000D+000.000000D+000.000000D+00 
 *                                                                     0.627458D+030.139946D-010.000000D+000.000000D+000.000000D+00*
 *                                                                     0.142902D+030.685866D-010.000000D+000.000000D+000.000000D+00*
 *                                                                     0.402343D+020.232241D+000.000000D+000.000000D+000.000000D+00*
 *                                                                     0.128202D+020.469070D+000.000000D+000.000000D+000.000000D+00*
 *                                                                     0.439044D+010.360455D+000.000000D+000.000000D+000.000000D+00*
 *                                          21- 24     SP        1.00                                                              *
+                                                                      0.116264D+02-.114961D+000.675797D-010.000000D+000.000000D+00 
 *                                                                     0.271628D+01-.169117D+000.323907D+000.000000D+000.000000D+00*
 *                                                                     0.772218D+000.114585D+010.740895D+000.000000D+000.000000D+00*
 *                                          25- 28     SP        1.00                                                              *
+                                                                      0.212031D+000.100000D+010.100000D+010.000000D+000.000000D+00 
 *                                          29- 32     SP        1.00                                                              *
+                                                                      0.639000D-010.100000D+010.100000D+010.000000D+000.000000D+00 
 *                                          33- 38     D         1.00                                                              *
+                                                                      0.800000D+000.000000D+000.000000D+000.100000D+010.000000D+00 
 *---------------------------------------------------------------------------------------------------------------------------------*
 *     C      3.37094 -2.15695 -0.62078                                                                                            *
+                                               39     S         1.00                                                               
+                                                                      0.304752D+040.183474D-020.000000D+000.000000D+000.000000D+00 
 *                                                                     0.457370D+030.140373D-010.000000D+000.000000D+000.000000D+00*
 *                                                                     0.103949D+030.688426D-010.000000D+000.000000D+000.000000D+00*
 *                                                                     0.292102D+020.232184D+000.000000D+000.000000D+000.000000D+00*
 *                                                                     0.928666D+010.467941D+000.000000D+000.000000D+000.000000D+00*
 *                                                                     0.316393D+010.362312D+000.000000D+000.000000D+000.000000D+00*
 *                                          40- 43     SP        1.00                                                              *
+                                                                      0.786827D+01-.119332D+000.689991D-010.000000D+000.000000D+00 
 *                                                                     0.188129D+01-.160854D+000.316424D+000.000000D+000.000000D+00*
 *                                                                     0.544249D+000.114346D+010.744308D+000.000000D+000.000000D+00*
 *                                          44- 47     SP        1.00                                                              *
+                                                                      0.168714D+000.100000D+010.100000D+010.000000D+000.000000D+00 
 *                                          48- 51     SP        1.00                                                              *
+                                                                      0.438000D-010.100000D+010.100000D+010.000000D+000.000000D+00 
 *                                          52- 57     D         1.00                                                              *
+                                                                      0.800000D+000.000000D+000.000000D+000.100000D+010.000000D+00 
 *---------------------------------------------------------------------------------------------------------------------------------*
 *     C      5.97612 -2.17831 -0.57240                                                                                            *
+                                               58     S         1.00                                                               
+                                                                      0.304752D+040.183474D-020.000000D+000.000000D+000.000000D+00 
 *                                                                     0.457370D+030.140373D-010.000000D+000.000000D+000.000000D+00*
 *                                                                     0.103949D+030.688426D-010.000000D+000.000000D+000.000000D+00*
 *                                                                     0.292102D+020.232184D+000.000000D+000.000000D+000.000000D+00*
 *                                                                     0.928666D+010.467941D+000.000000D+000.000000D+000.000000D+00*
 *                                                                     0.316393D+010.362312D+000.000000D+000.000000D+000.000000D+00*
 *                                          59- 62     SP        1.00                                                              *
+                                                                      0.786827D+01-.119332D+000.689991D-010.000000D+000.000000D+00 
 *                                                                     0.188129D+01-.160854D+000.316424D+000.000000D+000.000000D+00*
 *                                                                     0.544249D+000.114346D+010.744308D+000.000000D+000.000000D+00*
 *                                          63- 66     SP        1.00                                                              *
+                                                                      0.168714D+000.100000D+010.100000D+010.000000D+000.000000D+00 
 *                                          67- 70     SP        1.00                                                              *
+                                                                      0.438000D-010.100000D+010.100000D+010.000000D+000.000000D+00 
 *                                          71- 76     D         1.00                                                              *
+                                                                      0.800000D+000.000000D+000.000000D+000.100000D+010.000000D+00 
 *---------------------------------------------------------------------------------------------------------------------------------*
 *     C      7.35921 -0.00003  0.00000                                                                                            *
+                                               77     S         1.00                                                               
+                                                                      0.304752D+040.183474D-020.000000D+000.000000D+000.000000D+00 
 *                                                                     0.457370D+030.140373D-010.000000D+000.000000D+000.000000D+00*
 *                                                                     0.103949D+030.688426D-010.000000D+000.000000D+000.000000D+00*
 *                                                                     0.292102D+020.232184D+000.000000D+000.000000D+000.000000D+00*
 *                                                                     0.928666D+010.467941D+000.000000D+000.000000D+000.000000D+00*
 *                                                                     0.316393D+010.362312D+000.000000D+000.000000D+000.000000D+00*
 *                                          78- 81     SP        1.00                                                              *
+                                                                      0.786827D+01-.119332D+000.689991D-010.000000D+000.000000D+00 
 *                                                                     0.188129D+01-.160854D+000.316424D+000.000000D+000.000000D+00*
 *                                                                     0.544249D+000.114346D+010.744308D+000.000000D+000.000000D+00*
 *                                          82- 85     SP        1.00                                                              *
+                                                                      0.168714D+000.100000D+010.100000D+010.000000D+000.000000D+00 
 *                                          86- 89     SP        1.00                                                              *
+                                                                      0.438000D-010.100000D+010.100000D+010.000000D+000.000000D+00 
 *                                          90- 95     D         1.00                                                              *
+                                                                      0.800000D+000.000000D+000.000000D+000.100000D+010.000000D+00 
 *---------------------------------------------------------------------------------------------------------------------------------*
 *     C      5.97613  2.17826  0.57240                                                                                            *
+                                               96     S         1.00                                                               
+                                                                      0.304752D+040.183474D-020.000000D+000.000000D+000.000000D+00 
 *                                                                     0.457370D+030.140373D-010.000000D+000.000000D+000.000000D+00*
 *                                                                     0.103949D+030.688426D-010.000000D+000.000000D+000.000000D+00*
 *                                                                     0.292102D+020.232184D+000.000000D+000.000000D+000.000000D+00*
 *                                                                     0.928666D+010.467941D+000.000000D+000.000000D+000.000000D+00*
 *                                                                     0.316393D+010.362312D+000.000000D+000.000000D+000.000000D+00*
 *                                          97-100     SP        1.00                                                              *
+                                                                      0.786827D+01-.119332D+000.689991D-010.000000D+000.000000D+00 
 *                                                                     0.188129D+01-.160854D+000.316424D+000.000000D+000.000000D+00*
 *                                                                     0.544249D+000.114346D+010.744308D+000.000000D+000.000000D+00*
 *                                         101-104     SP        1.00                                                              *
+                                                                      0.168714D+000.100000D+010.100000D+010.000000D+000.000000D+00 
 *                                         105-108     SP        1.00                                                              *
+                                                                      0.438000D-010.100000D+010.100000D+010.000000D+000.000000D+00 
 *                                         109-114     D         1.00                                                              *
+                                                                      0.800000D+000.000000D+000.000000D+000.100000D+010.000000D+00 
 *---------------------------------------------------------------------------------------------------------------------------------*
 *     C     -0.60201 -0.00001  0.00000                                                                                            *
+                                              115     S         1.00                                                               
+                                                                      0.304752D+040.183474D-020.000000D+000.000000D+000.000000D+00 
 *                                                                     0.457370D+030.140373D-010.000000D+000.000000D+000.000000D+00*
 *                                                                     0.103949D+030.688426D-010.000000D+000.000000D+000.000000D+00*
 *                                                                     0.292102D+020.232184D+000.000000D+000.000000D+000.000000D+00*
 *                                                                     0.928666D+010.467941D+000.000000D+000.000000D+000.000000D+00*
 *                                                                     0.316393D+010.362312D+000.000000D+000.000000D+000.000000D+00*
 *                                         116-119     SP        1.00                                                              *
+                                                                      0.786827D+01-.119332D+000.689991D-010.000000D+000.000000D+00 
 *                                                                     0.188129D+01-.160854D+000.316424D+000.000000D+000.000000D+00*
 *                                                                     0.544249D+000.114346D+010.744308D+000.000000D+000.000000D+00*
 *                                         120-123     SP        1.00                                                              *
+                                                                      0.168714D+000.100000D+010.100000D+010.000000D+000.000000D+00 
 *                                         124-127     SP        1.00                                                              *
+                                                                      0.438000D-010.100000D+010.100000D+010.000000D+000.000000D+00 
 *                                         128-133     D         1.00                                                              *
+                                                                      0.800000D+000.000000D+000.000000D+000.100000D+010.000000D+00 
 *---------------------------------------------------------------------------------------------------------------------------------*
 *     C     -1.96073 -2.25785  0.55709                                                                                            *
+                                              134     S         1.00                                                               
+                                                                      0.304752D+040.183474D-020.000000D+000.000000D+000.000000D+00 
 *                                                                     0.457370D+030.140373D-010.000000D+000.000000D+000.000000D+00*
 *                                                                     0.103949D+030.688426D-010.000000D+000.000000D+000.000000D+00*
 *                                                                     0.292102D+020.232184D+000.000000D+000.000000D+000.000000D+00*
 *                                                                     0.928666D+010.467941D+000.000000D+000.000000D+000.000000D+00*
 *                                                                     0.316393D+010.362312D+000.000000D+000.000000D+000.000000D+00*
 *                                         135-138     SP        1.00                                                              *
+                                                                      0.786827D+01-.119332D+000.689991D-010.000000D+000.000000D+00 
 *                                                                     0.188129D+01-.160854D+000.316424D+000.000000D+000.000000D+00*
 *                                                                     0.544249D+000.114346D+010.744308D+000.000000D+000.000000D+00*
 *                                         139-142     SP        1.00                                                              *
+                                                                      0.168714D+000.100000D+010.100000D+010.000000D+000.000000D+00 
 *                                         143-146     SP        1.00                                                              *
+                                                                      0.438000D-010.100000D+010.100000D+010.000000D+000.000000D+00 
 *                                         147-152     D         1.00                                                              *
+                                                                      0.800000D+000.000000D+000.000000D+000.100000D+010.000000D+00 
 *---------------------------------------------------------------------------------------------------------------------------------*
 *     C     -4.54663 -2.25067  0.58752                                                                                            *
+                                              153     S         1.00                                                               
+                                                                      0.304752D+040.183474D-020.000000D+000.000000D+000.000000D+00 
 *                                                                     0.457370D+030.140373D-010.000000D+000.000000D+000.000000D+00*
 *                                                                     0.103949D+030.688426D-010.000000D+000.000000D+000.000000D+00*
 *                                                                     0.292102D+020.232184D+000.000000D+000.000000D+000.000000D+00*
 *                                                                     0.928666D+010.467941D+000.000000D+000.000000D+000.000000D+00*
 *                                                                     0.316393D+010.362312D+000.000000D+000.000000D+000.000000D+00*
 *                                         154-157     SP        1.00                                                              *
+                                                                      0.786827D+01-.119332D+000.689991D-010.000000D+000.000000D+00 
 *                                                                     0.188129D+01-.160854D+000.316424D+000.000000D+000.000000D+00*
 *                                                                     0.544249D+000.114346D+010.744308D+000.000000D+000.000000D+00*
 *                                         158-161     SP        1.00                                                              *
+                                                                      0.168714D+000.100000D+010.100000D+010.000000D+000.000000D+00 
 *                                         162-165     SP        1.00                                                              *
+                                                                      0.438000D-010.100000D+010.100000D+010.000000D+000.000000D+00 
 *                                         166-171     D         1.00                                                              *
+                                                                      0.800000D+000.000000D+000.000000D+000.100000D+010.000000D+00 
 *---------------------------------------------------------------------------------------------------------------------------------*
 *     C     -6.03611  0.00000  0.00000                                                                                            *
+                                              172     S         1.00                                                               
+                                                                      0.304752D+040.183474D-020.000000D+000.000000D+000.000000D+00 
 *                                                                     0.457370D+030.140373D-010.000000D+000.000000D+000.000000D+00*
 *                                                                     0.103949D+030.688426D-010.000000D+000.000000D+000.000000D+00*
 *                                                                     0.292102D+020.232184D+000.000000D+000.000000D+000.000000D+00*
 *                                                                     0.928666D+010.467941D+000.000000D+000.000000D+000.000000D+00*
 *                                                                     0.316393D+010.362312D+000.000000D+000.000000D+000.000000D+00*
 *                                         173-176     SP        1.00                                                              *
+                                                                      0.786827D+01-.119332D+000.689991D-010.000000D+000.000000D+00 
 *                                                                     0.188129D+01-.160854D+000.316424D+000.000000D+000.000000D+00*
 *                                                                     0.544249D+000.114346D+010.744308D+000.000000D+000.000000D+00*
 *                                         177-180     SP        1.00                                                              *
+                                                                      0.168714D+000.100000D+010.100000D+010.000000D+000.000000D+00 
 *                                         181-184     SP        1.00                                                              *
+                                                                      0.438000D-010.100000D+010.100000D+010.000000D+000.000000D+00 
 *                                         185-190     D         1.00                                                              *
+                                                                      0.800000D+000.000000D+000.000000D+000.100000D+010.000000D+00 
 *---------------------------------------------------------------------------------------------------------------------------------*
 *     C     -4.54662  2.25066 -0.58752                                                                                            *
+                                              191     S         1.00                                                               
+                                                                      0.304752D+040.183474D-020.000000D+000.000000D+000.000000D+00 
 *                                                                     0.457370D+030.140373D-010.000000D+000.000000D+000.000000D+00*
 *                                                                     0.103949D+030.688426D-010.000000D+000.000000D+000.000000D+00*
 *                                                                     0.292102D+020.232184D+000.000000D+000.000000D+000.000000D+00*
 *                                                                     0.928666D+010.467941D+000.000000D+000.000000D+000.000000D+00*
 *                                                                     0.316393D+010.362312D+000.000000D+000.000000D+000.000000D+00*
 *                                         192-195     SP        1.00                                                              *
+                                                                      0.786827D+01-.119332D+000.689991D-010.000000D+000.000000D+00 
 *                                                                     0.188129D+01-.160854D+000.316424D+000.000000D+000.000000D+00*
 *                                                                     0.544249D+000.114346D+010.744308D+000.000000D+000.000000D+00*
 *                                         196-199     SP        1.00                                                              *
+                                                                      0.168714D+000.100000D+010.100000D+010.000000D+000.000000D+00 
 *                                         200-203     SP        1.00                                                              *
+                                                                      0.438000D-010.100000D+010.100000D+010.000000D+000.000000D+00 
 *                                         204-209     D         1.00                                                              *
+                                                                      0.800000D+000.000000D+000.000000D+000.100000D+010.000000D+00 
 *---------------------------------------------------------------------------------------------------------------------------------*
 *     C     -1.96072  2.25784 -0.55709                                                                                            *
+                                              210     S         1.00                                                               
+                                                                      0.304752D+040.183474D-020.000000D+000.000000D+000.000000D+00 
 *                                                                     0.457370D+030.140373D-010.000000D+000.000000D+000.000000D+00*
 *                                                                     0.103949D+030.688426D-010.000000D+000.000000D+000.000000D+00*
 *                                                                     0.292102D+020.232184D+000.000000D+000.000000D+000.000000D+00*
 *                                                                     0.928666D+010.467941D+000.000000D+000.000000D+000.000000D+00*
 *                                                                     0.316393D+010.362312D+000.000000D+000.000000D+000.000000D+00*
 *                                         211-214     SP        1.00                                                              *
+                                                                      0.786827D+01-.119332D+000.689991D-010.000000D+000.000000D+00 
 *                                                                     0.188129D+01-.160854D+000.316424D+000.000000D+000.000000D+00*
 *                                                                     0.544249D+000.114346D+010.744308D+000.000000D+000.000000D+00*
 *                                         215-218     SP        1.00                                                              *
+                                                                      0.168714D+000.100000D+010.100000D+010.000000D+000.000000D+00 
 *                                         219-222     SP        1.00                                                              *
+                                                                      0.438000D-010.100000D+010.100000D+010.000000D+000.000000D+00 
 *                                         223-228     D         1.00                                                              *
+                                                                      0.800000D+000.000000D+000.000000D+000.100000D+010.000000D+00 
 *---------------------------------------------------------------------------------------------------------------------------------*
 *     O     -8.39468  0.00000  0.00000                                                                                            *
+                                              229     S         1.00                                                               
+                                                                      0.548467D+040.183107D-020.000000D+000.000000D+000.000000D+00 
 *                                                                     0.825235D+030.139502D-010.000000D+000.000000D+000.000000D+00*
 *                                                                     0.188047D+030.684451D-010.000000D+000.000000D+000.000000D+00*
 *                                                                     0.529645D+020.232714D+000.000000D+000.000000D+000.000000D+00*
 *                                                                     0.168976D+020.470193D+000.000000D+000.000000D+000.000000D+00*
 *                                                                     0.579964D+010.358521D+000.000000D+000.000000D+000.000000D+00*
 *                                         230-233     SP        1.00                                                              *
+                                                                      0.155396D+02-.110778D+000.708743D-010.000000D+000.000000D+00 
 *                                                                     0.359993D+01-.148026D+000.339753D+000.000000D+000.000000D+00*
 *                                                                     0.101376D+010.113077D+010.727159D+000.000000D+000.000000D+00*
 *                                         234-237     SP        1.00                                                              *
+                                                                      0.270006D+000.100000D+010.100000D+010.000000D+000.000000D+00 
 *                                         238-241     SP        1.00                                                              *
+                                                                      0.845000D-010.100000D+010.100000D+010.000000D+000.000000D+00 
 *                                         242-247     D         1.00                                                              *
+                                                                      0.800000D+000.000000D+000.000000D+000.100000D+010.000000D+00 
 *---------------------------------------------------------------------------------------------------------------------------------*
 *     H      2.25110  3.74466  1.25648                                                                                            *
+                                              248     S         1.00                                                               
+                                                                      0.187311D+020.334946D-010.000000D+000.000000D+000.000000D+00 
 *                                                                     0.282539D+010.234727D+000.000000D+000.000000D+000.000000D+00*
 *                                                                     0.640122D+000.813757D+000.000000D+000.000000D+000.000000D+00*
 *                                             249     S         1.00                                                              *
+                                                                      0.161278D+000.100000D+010.000000D+000.000000D+000.000000D+00 
 *---------------------------------------------------------------------------------------------------------------------------------*
 *     H      6.92269  3.92890  1.07771                                                                                            *
+                                              250     S         1.00                                                               
+                                                                      0.187311D+020.334946D-010.000000D+000.000000D+000.000000D+00 
 *                                                                     0.282539D+010.234727D+000.000000D+000.000000D+000.000000D+00*
 *                                                                     0.640122D+000.813757D+000.000000D+000.000000D+000.000000D+00*
 *                                             251     S         1.00                                                              *
+                                                                      0.161278D+000.100000D+010.000000D+000.000000D+000.000000D+00 
 *---------------------------------------------------------------------------------------------------------------------------------*
 *     H      9.40938 -0.00003  0.00000                                                                                            *
+                                              252     S         1.00                                                               
+                                                                      0.187311D+020.334946D-010.000000D+000.000000D+000.000000D+00 
 *                                                                     0.282539D+010.234727D+000.000000D+000.000000D+000.000000D+00*
 *                                                                     0.640122D+000.813757D+000.000000D+000.000000D+000.000000D+00*
 *                                             253     S         1.00                                                              *
+                                                                      0.161278D+000.100000D+010.000000D+000.000000D+000.000000D+00 
 *---------------------------------------------------------------------------------------------------------------------------------*
 *     H      6.92268 -3.92896 -1.07771                                                                                            *
+                                              254     S         1.00                                                               
+                                                                      0.187311D+020.334946D-010.000000D+000.000000D+000.000000D+00 
 *                                                                     0.282539D+010.234727D+000.000000D+000.000000D+000.000000D+00*
 *                                                                     0.640122D+000.813757D+000.000000D+000.000000D+000.000000D+00*
 *                                             255     S         1.00                                                              *
+                                                                      0.161278D+000.100000D+010.000000D+000.000000D+000.000000D+00 
 *---------------------------------------------------------------------------------------------------------------------------------*
 *     H      2.25109 -3.74470 -1.25648                                                                                            *
+                                              256     S         1.00                                                               
+                                                                      0.187311D+020.334946D-010.000000D+000.000000D+000.000000D+00 
 *                                                                     0.282539D+010.234727D+000.000000D+000.000000D+000.000000D+00*
 *                                                                     0.640122D+000.813757D+000.000000D+000.000000D+000.000000D+00*
 *                                             257     S         1.00                                                              *
+                                                                      0.161278D+000.100000D+010.000000D+000.000000D+000.000000D+00 
 *---------------------------------------------------------------------------------------------------------------------------------*
 *     H     -0.94123 -3.93726  1.16747                                                                                            *
+                                              258     S         1.00                                                               
+                                                                      0.187311D+020.334946D-010.000000D+000.000000D+000.000000D+00 
 *                                                                     0.282539D+010.234727D+000.000000D+000.000000D+000.000000D+00*
 *                                                                     0.640122D+000.813757D+000.000000D+000.000000D+000.000000D+00*
 *                                             259     S         1.00                                                              *
+                                                                      0.161278D+000.100000D+010.000000D+000.000000D+000.000000D+00 
 *---------------------------------------------------------------------------------------------------------------------------------*
 *     H     -5.59298 -3.93649  1.12099                                                                                            *
+                                              260     S         1.00                                                               
+                                                                      0.187311D+020.334946D-010.000000D+000.000000D+000.000000D+00 
 *                                                                     0.282539D+010.234727D+000.000000D+000.000000D+000.000000D+00*
 *                                                                     0.640122D+000.813757D+000.000000D+000.000000D+000.000000D+00*
 *                                             261     S         1.00                                                              *
+                                                                      0.161278D+000.100000D+010.000000D+000.000000D+000.000000D+00 
 *---------------------------------------------------------------------------------------------------------------------------------*
 *     H     -5.59296  3.93649 -1.12099                                                                                            *
+                                              262     S         1.00                                                               
+                                                                      0.187311D+020.334946D-010.000000D+000.000000D+000.000000D+00 
 *                                                                     0.282539D+010.234727D+000.000000D+000.000000D+000.000000D+00*
 *                                                                     0.640122D+000.813757D+000.000000D+000.000000D+000.000000D+00*
 *                                             263     S         1.00                                                              *
+                                                                      0.161278D+000.100000D+010.000000D+000.000000D+000.000000D+00 
 *---------------------------------------------------------------------------------------------------------------------------------*
 *     H     -0.94121  3.93723 -1.16747                                                                                            *
+                                              264     S         1.00                                                               
+                                                                      0.187311D+020.334946D-010.000000D+000.000000D+000.000000D+00 
 *                                                                     0.282539D+010.234727D+000.000000D+000.000000D+000.000000D+00*
 *                                                                     0.640122D+000.813757D+000.000000D+000.000000D+000.000000D+00*
 *                                             265     S         1.00                                                              *
+                                                                      0.161278D+000.100000D+010.000000D+000.000000D+000.000000D+00 
 ***********************************************************************************************************************************
 There are   265 symmetry adapted basis functions of A   symmetry.
 Integral buffers will be    262144 words long.
 Raffenetti 2 integral format.
 Two-electron integral symmetry is turned on.
   265 basis functions,   452 primitive gaussians,   265 cartesian basis functions
    45 alpha electrons       45 beta electrons
       nuclear repulsion energy       702.1187002035 Hartrees.
 IExCor=1009 DFT=T Ex=PBE+HF Corr=PBE ExCW=0 ScaHFX=  0.250000
 ScaDFX=  0.750000  0.750000  1.000000  1.000000
 IRadAn=      0 IRanWt=     -1 IRanGd=            0 ICorTp=0
 NAtoms=   22 NActive=   22 NUniq=   22 SFac= 7.50D-01 NAtFMM=   80 NAOKFM=F Big=F
 Leave Link  301 at Wed Jun  6 10:32:24 2007, MaxMem=   52428800 cpu:       0.1
 (Enter /usr/local/apps/g03/l302.exe)
 NPDir=0 NMtPBC=     1 NCelOv=     1 NCel=       1 NClECP=     1 NCelD=      1
         NCelK=      1 NCelE2=     1 NClLst=     1 CellRange=     0.0.
 One-electron integrals computed using PRISM.
 NBasis=   265 RedAO= T  NBF=   265
 NBsUse=   265 1.00D-06 NBFU=   265
 Precomputing XC quadrature grid using
 IXCGrd= 2 IRadAn=           0 IRanWt=          -1 IRanGd=           0.
 NRdTot=    1420 NPtTot=      181468 NUsed=      187903 NTot=      187919
 NSgBfM=   264   264   264   264.
 Leave Link  302 at Wed Jun  6 10:32:29 2007, MaxMem=   52428800 cpu:       3.5
 (Enter /usr/local/apps/g03/l303.exe)
 DipDrv:  MaxL=1.
 Leave Link  303 at Wed Jun  6 10:32:30 2007, MaxMem=   52428800 cpu:       0.1
 (Enter /usr/local/apps/g03/l401.exe)
 Harris functional with IExCor= 1009 diagonalized for initial guess.
 ExpMin= 4.38D-02 ExpMax= 5.48D+03 ExpMxC= 8.25D+02 IAcc=2 IRadAn=         4 AccDes= 0.00D+00
 HarFok:  IExCor=1009 AccDes= 0.00D+00 IRadAn=         4 IDoV=1
 ScaDFX=  1.000000  1.000000  1.000000  1.000000
 Harris En= -554.219049860965    
 Initial guess orbital symmetries:
       Occupied  (A) (A) (A) (A) (A) (A) (A) (A) (A) (A) (A) (A)
                 (A) (A) (A) (A) (A) (A) (A) (A) (A) (A) (A) (A)
                 (A) (A) (A) (A) (A) (A) (A) (A) (A) (A) (A) (A)
                 (A) (A) (A) (A) (A) (A) (A) (A) (A)
       Virtual   (A) (A) (A) (A) (A) (A) (A) (A) (A) (A) (A) (A)
                 (A) (A) (A) (A) (A) (A) (A) (A) (A) (A) (A) (A)
                 (A) (A) (A) (A) (A) (A) (A) (A) (A) (A) (A) (A)
                 (A) (A) (A) (A) (A) (A) (A) (A) (A) (A) (A) (A)
                 (A) (A) (A) (A) (A) (A) (A) (A) (A) (A) (A) (A)
                 (A) (A) (A) (A) (A) (A) (A) (A) (A) (A) (A) (A)
                 (A) (A) (A) (A) (A) (A) (A) (A) (A) (A) (A) (A)
                 (A) (A) (A) (A) (A) (A) (A) (A) (A) (A) (A) (A)
                 (A) (A) (A) (A) (A) (A) (A) (A) (A) (A) (A) (A)
                 (A) (A) (A) (A) (A) (A) (A) (A) (A) (A) (A) (A)
                 (A) (A) (A) (A) (A) (A) (A) (A) (A) (A) (A) (A)
                 (A) (A) (A) (A) (A) (A) (A) (A) (A) (A) (A) (A)
                 (A) (A) (A) (A) (A) (A) (A) (A) (A) (A) (A) (A)
                 (A) (A) (A) (A) (A) (A) (A) (A) (A) (A) (A) (A)
                 (A) (A) (A) (A) (A) (A) (A) (A) (A) (A) (A) (A)
                 (A) (A) (A) (A) (A) (A) (A) (A) (A) (A) (A) (A)
                 (A) (A) (A) (A) (A) (A) (A) (A) (A) (A) (A) (A)
                 (A) (A) (A) (A) (A) (A) (A) (A) (A) (A) (A) (A)
                 (A) (A) (A) (A)
 The electronic state of the initial guess is 1-A.
 Leave Link  401 at Wed Jun  6 10:33:14 2007, MaxMem=   52428800 cpu:      43.4
 (Enter /usr/local/apps/g03/l502.exe)
 Closed shell SCF:
 Requested convergence on RMS density matrix=1.00D-04 within 128 cycles.
 Requested convergence on MAX density matrix=1.00D-02.
 Requested convergence on             energy=1.00D-02.
 No special actions if energy rises.
 Using DIIS extrapolation, IDIIS=  1040.
 Integral symmetry usage will be decided dynamically.
       187902 words used for storage of precomputed grid.
 IEnd=    436144 IEndB=    436144 NGot=  52428800 MDV=  52079787
 LenX=  52079787
 Fock matrices will be formed incrementally for  20 cycles.

 Cycle   1  Pass 1  IDiag  1:
 Petite list used in FoFDir.
 MinBra= 0 MaxBra= 2 Meth= 1.
 IRaf=       0 NMat=   1 IRICut=       1 DoRegI=T DoRafI=F ISym2E= 1 JSym2E=1.
 E= -553.492557207075    
 DIIS: error= 2.87D-02 at cycle   1 NSaved=   1.
 NSaved= 1 IEnMin= 1 EnMin= -553.492557207075     IErMin= 1 ErrMin= 2.87D-02
 ErrMax= 2.87D-02 EMaxC= 1.00D-01 BMatC= 3.58D-01 BMatP= 3.58D-01
 IDIUse=3 WtCom= 7.13D-01 WtEn= 2.87D-01
 Coeff-Com:  0.100D+01
 Coeff-En:   0.100D+01
 Coeff:      0.100D+01
 Gap=    -0.010 Goal=   None    Shift=    0.000
 GapD=   -0.010 DampG=0.250 DampE=0.500 DampFc=0.2500 IDamp=-1.
 Damping current iteration by 2.50D-01
 RMSDP=1.59D-01 MaxDP=9.58D+00              OVMax= 9.83D-01

 Cycle   2  Pass 1  IDiag  1:
 RMSU=  3.84D-02    CP:  1.29D+00
 E= -553.432618177853     Delta-E=        0.059939029221 Rises=F Damp=T
 DIIS: error= 1.33D-02 at cycle   2 NSaved=   2.
 NSaved= 2 IEnMin= 1 EnMin= -553.492557207075     IErMin= 2 ErrMin= 1.33D-02
 ErrMax= 1.33D-02 EMaxC= 1.00D-01 BMatC= 1.17D-01 BMatP= 3.58D-01
 IDIUse=3 WtCom= 8.67D-01 WtEn= 1.33D-01
 Coeff-Com:  0.403D-01 0.960D+00
 Coeff-En:   0.584D+00 0.416D+00
 Coeff:      0.112D+00 0.888D+00
 Gap=    -0.016 Goal=   None    Shift=    0.000
 RMSDP=3.67D-02 MaxDP=1.81D+00 DE= 5.99D-02 OVMax= 5.62D-01

 Cycle   3  Pass 1  IDiag  1:
 RMSU=  1.69D-02    CP:  1.04D+00  1.85D-01
 E= -553.388042355218     Delta-E=        0.044575822635 Rises=F Damp=F
 DIIS: error= 4.24D-02 at cycle   3 NSaved=   3.
 NSaved= 3 IEnMin= 1 EnMin= -553.492557207075     IErMin= 2 ErrMin= 1.33D-02
 ErrMax= 4.24D-02 EMaxC= 1.00D-01 BMatC= 3.89D-01 BMatP= 1.17D-01
 IDIUse=2 WtCom= 0.00D+00 WtEn= 1.00D+00
 EnCoef did     1 forward-backward iterations
 Coeff-En:   0.103D+00 0.470D+00 0.428D+00
 Coeff:      0.103D+00 0.470D+00 0.428D+00
 Gap=     0.287 Goal=   None    Shift=    0.000
 RMSDP=5.69D-02 MaxDP=3.31D+00 DE= 4.46D-02 OVMax= 7.26D-01

 Cycle   4  Pass 1  IDiag  1:
 RMSU=  5.19D-02    CP:  1.56D+00  4.66D-01  4.96D-01
 E= -553.675480251160     Delta-E=       -0.287437895942 Rises=F Damp=F
 DIIS: error= 2.77D-02 at cycle   4 NSaved=   4.
 NSaved= 4 IEnMin= 4 EnMin= -553.675480251160     IErMin= 2 ErrMin= 1.33D-02
 ErrMax= 2.77D-02 EMaxC= 1.00D-01 BMatC= 1.80D-01 BMatP= 1.17D-01
 IDIUse=2 WtCom= 0.00D+00 WtEn= 1.00D+00
 EnCoef did     4 forward-backward iterations
 Coeff-En:   0.609D-01 0.000D+00 0.305D+00 0.634D+00
 Coeff:      0.609D-01 0.000D+00 0.305D+00 0.634D+00
 Gap=     0.170 Goal=   None    Shift=    0.000
 RMSDP=4.41D-02 MaxDP=2.78D+00 DE=-2.87D-01 OVMax= 4.64D-01

 Cycle   5  Pass 1  IDiag  1:
 RMSU=  1.57D-02    CP:  1.21D+00  8.80D-02  4.53D-01  2.99D-01
 E= -553.810785383410     Delta-E=       -0.135305132250 Rises=F Damp=F
 DIIS: error= 1.59D-02 at cycle   5 NSaved=   5.
 NSaved= 5 IEnMin= 5 EnMin= -553.810785383410     IErMin= 2 ErrMin= 1.33D-02
 ErrMax= 1.59D-02 EMaxC= 1.00D-01 BMatC= 6.68D-02 BMatP= 1.17D-01
 IDIUse=3 WtCom= 8.41D-01 WtEn= 1.59D-01
 Coeff-Com: -0.233D+00 0.379D+00 0.985D-01 0.152D+00 0.603D+00
 Coeff-En:   0.000D+00 0.000D+00 0.000D+00 0.322D+00 0.678D+00
 Coeff:     -0.196D+00 0.319D+00 0.828D-01 0.179D+00 0.615D+00
 Gap=     0.108 Goal=   None    Shift=    0.000
 RMSDP=6.30D-03 MaxDP=2.18D-01 DE=-1.35D-01 OVMax= 4.88D-02

 Cycle   6  Pass 1  IDiag  1:
 RMSU=  3.21D-03    CP:  1.28D+00  1.09D-01  5.34D-01  3.72D-01  1.16D+00
 E= -553.851587269621     Delta-E=       -0.040801886211 Rises=F Damp=F
 DIIS: error= 1.09D-02 at cycle   6 NSaved=   6.
 NSaved= 6 IEnMin= 6 EnMin= -553.851587269621     IErMin= 6 ErrMin= 1.09D-02
 ErrMax= 1.09D-02 EMaxC= 1.00D-01 BMatC= 2.21D-02 BMatP= 6.68D-02
 IDIUse=3 WtCom= 8.91D-01 WtEn= 1.09D-01
 Coeff-Com: -0.218D+00 0.275D+00-0.441D-01 0.719D-01 0.401D+00 0.515D+00
 Coeff-En:   0.000D+00 0.000D+00 0.000D+00 0.195D+00 0.000D+00 0.805D+00
 Coeff:     -0.195D+00 0.245D+00-0.393D-01 0.853D-01 0.357D+00 0.547D+00
 Gap=     0.098 Goal=   None    Shift=    0.000
 RMSDP=5.66D-03 MaxDP=2.30D-01 DE=-4.08D-02 OVMax= 6.89D-02

 Cycle   7  Pass 1  IDiag  1:
 RMSU=  1.69D-03    CP:  1.34D+00  1.44D-01  5.05D-01  4.53D-01  1.28D+00
                    CP:  9.91D-01
 E= -553.870675637679     Delta-E=       -0.019088368059 Rises=F Damp=F
 DIIS: error= 7.21D-03 at cycle   7 NSaved=   7.
 NSaved= 7 IEnMin= 7 EnMin= -553.870675637679     IErMin= 7 ErrMin= 7.21D-03
 ErrMax= 7.21D-03 EMaxC= 1.00D-01 BMatC= 9.06D-03 BMatP= 2.21D-02
 IDIUse=3 WtCom= 9.28D-01 WtEn= 7.21D-02
 Coeff-Com: -0.145D+00 0.190D+00-0.457D-01 0.530D-01 0.148D+00 0.276D+00
 Coeff-Com:  0.523D+00
 Coeff-En:   0.000D+00 0.000D+00 0.000D+00 0.996D-01 0.000D+00 0.000D+00
 Coeff-En:   0.900D+00
 Coeff:     -0.134D+00 0.176D+00-0.424D-01 0.563D-01 0.137D+00 0.256D+00
 Coeff:      0.551D+00
 Gap=     0.097 Goal=   None    Shift=    0.000
 RMSDP=3.87D-03 MaxDP=1.46D-01 DE=-1.91D-02 OVMax= 4.01D-02

 Cycle   8  Pass 1  IDiag  1:
 RMSU=  1.13D-03    CP:  1.39D+00  1.56D-01  5.40D-01  5.10D-01  1.35D+00
                    CP:  1.03D+00  1.02D+00
 E= -553.879207900899     Delta-E=       -0.008532263219 Rises=F Damp=F
 DIIS: error= 4.63D-03 at cycle   8 NSaved=   8.
 NSaved= 8 IEnMin= 8 EnMin= -553.879207900899     IErMin= 8 ErrMin= 4.63D-03
 ErrMax= 4.63D-03 EMaxC= 1.00D-01 BMatC= 3.13D-03 BMatP= 9.06D-03
 IDIUse=3 WtCom= 9.54D-01 WtEn= 4.63D-02
 Coeff-Com:  0.826D-02 0.160D-02-0.717D-02 0.453D-01-0.109D+00-0.268D+00
 Coeff-Com:  0.249D+00 0.108D+01
 Coeff-En:   0.000D+00 0.000D+00 0.000D+00 0.732D-02 0.000D+00 0.000D+00
 Coeff-En:   0.000D+00 0.993D+00
 Coeff:      0.788D-02 0.152D-02-0.684D-02 0.435D-01-0.104D+00-0.255D+00
 Coeff:      0.237D+00 0.108D+01
 Gap=     0.088 Goal=   None    Shift=    0.000
 RMSDP=7.84D-03 MaxDP=3.73D-01 DE=-8.53D-03 OVMax= 1.03D-01

 Cycle   9  Pass 1  IDiag  1:
 RMSU=  1.29D-03    CP:  1.47D+00  1.93D-01  5.92D-01  6.39D-01  1.38D+00
                    CP:  7.57D-01  1.51D+00  2.37D+00
 E= -553.883442525623     Delta-E=       -0.004234624724 Rises=F Damp=F
 DIIS: error= 1.69D-03 at cycle   9 NSaved=   9.
 NSaved= 9 IEnMin= 9 EnMin= -553.883442525623     IErMin= 9 ErrMin= 1.69D-03
 ErrMax= 1.69D-03 EMaxC= 1.00D-01 BMatC= 5.92D-04 BMatP= 3.13D-03
 IDIUse=3 WtCom= 9.83D-01 WtEn= 1.69D-02
 Coeff-Com:  0.611D-02-0.950D-02 0.455D-02-0.103D-03-0.138D-01-0.122D+00
 Coeff-Com: -0.553D-01 0.585D+00 0.605D+00
 Coeff-En:   0.000D+00 0.000D+00 0.000D+00 0.000D+00 0.000D+00 0.000D+00
 Coeff-En:   0.000D+00 0.182D+00 0.818D+00
 Coeff:      0.601D-02-0.934D-02 0.448D-02-0.101D-03-0.136D-01-0.120D+00
 Coeff:     -0.544D-01 0.579D+00 0.609D+00
 Gap=     0.094 Goal=   None    Shift=    0.000
 RMSDP=2.05D-03 MaxDP=1.03D-01 DE=-4.23D-03 OVMax= 1.90D-02

 Cycle  10  Pass 1  IDiag  1:
 RMSU=  3.92D-04    CP:  1.45D+00  1.77D-01  6.04D-01  6.09D-01  1.35D+00
                    CP:  6.79D-01  1.29D+00  2.36D+00  9.71D-01
 E= -553.884166054858     Delta-E=       -0.000723529235 Rises=F Damp=F
 DIIS: error= 5.52D-04 at cycle  10 NSaved=  10.
 NSaved=10 IEnMin=10 EnMin= -553.884166054858     IErMin=10 ErrMin= 5.52D-04
 ErrMax= 5.52D-04 EMaxC= 1.00D-01 BMatC= 7.89D-05 BMatP= 5.92D-04
 IDIUse=3 WtCom= 9.94D-01 WtEn= 5.52D-03
 Coeff-Com: -0.873D-04-0.867D-03 0.315D-02-0.507D-02 0.279D-02-0.468D-01
 Coeff-Com: -0.402D-01 0.299D+00 0.344D+00 0.445D+00
 Coeff-En:   0.000D+00 0.000D+00 0.000D+00 0.000D+00 0.000D+00 0.000D+00
 Coeff-En:   0.000D+00 0.000D+00 0.000D+00 0.100D+01
 Coeff:     -0.868D-04-0.862D-03 0.313D-02-0.504D-02 0.277D-02-0.465D-01
 Coeff:     -0.400D-01 0.297D+00 0.342D+00 0.448D+00
 Gap=     0.094 Goal=   None    Shift=    0.000
 RMSDP=4.04D-04 MaxDP=1.32D-02 DE=-7.24D-04 OVMax= 2.76D-03

 Cycle  11  Pass 1  IDiag  1:
 RMSU=  8.03D-05    CP:  1.44D+00  1.75D-01  5.98D-01  6.03D-01  1.34D+00
                    CP:  6.82D-01  1.27D+00  2.28D+00  9.97D-01  9.85D-01
 E= -553.884230158325     Delta-E=       -0.000064103467 Rises=F Damp=F
 DIIS: error= 2.32D-04 at cycle  11 NSaved=  11.
 NSaved=11 IEnMin=11 EnMin= -553.884230158325     IErMin=11 ErrMin= 2.32D-04
 ErrMax= 2.32D-04 EMaxC= 1.00D-01 BMatC= 9.35D-06 BMatP= 7.89D-05
 IDIUse=3 WtCom= 9.98D-01 WtEn= 2.32D-03
 Coeff-Com: -0.102D-02 0.106D-02 0.721D-03-0.367D-02 0.443D-02 0.549D-02
 Coeff-Com: -0.674D-02 0.229D-01 0.142D-02 0.232D+00 0.744D+00
 Coeff-En:   0.000D+00 0.000D+00 0.000D+00 0.000D+00 0.000D+00 0.000D+00
 Coeff-En:   0.000D+00 0.000D+00 0.000D+00 0.000D+00 0.100D+01
 Coeff:     -0.101D-02 0.106D-02 0.719D-03-0.366D-02 0.441D-02 0.548D-02
 Coeff:     -0.672D-02 0.228D-01 0.142D-02 0.231D+00 0.744D+00
 Gap=     0.094 Goal=   None    Shift=    0.000
 RMSDP=2.96D-04 MaxDP=1.96D-02 DE=-6.41D-05 OVMax= 2.63D-03

 Cycle  12  Pass 1  IDiag  1:
 RMSU=  2.87D-05    CP:  1.44D+00  1.72D-01  6.01D-01  5.99D-01  1.34D+00
                    CP:  6.67D-01  1.23D+00  2.31D+00  1.02D+00  1.07D+00
                    CP:  9.93D-01
 E= -553.884242807381     Delta-E=       -0.000012649056 Rises=F Damp=F
 DIIS: error= 3.53D-05 at cycle  12 NSaved=  12.
 NSaved=12 IEnMin=12 EnMin= -553.884242807381     IErMin=12 ErrMin= 3.53D-05
 ErrMax= 3.53D-05 EMaxC= 1.00D-01 BMatC= 4.14D-07 BMatP= 9.35D-06
 IDIUse=1 WtCom= 1.00D+00 WtEn= 0.00D+00
 Coeff-Com: -0.103D-03 0.195D-04-0.462D-05-0.109D-02 0.141D-02 0.709D-02
 Coeff-Com:  0.126D-02-0.176D-01-0.436D-01 0.781D-01 0.395D+00 0.580D+00
 Coeff:     -0.103D-03 0.195D-04-0.462D-05-0.109D-02 0.141D-02 0.709D-02
 Coeff:      0.126D-02-0.176D-01-0.436D-01 0.781D-01 0.395D+00 0.580D+00
 Gap=     0.094 Goal=   None    Shift=    0.000
 RMSDP=7.09D-05 MaxDP=2.42D-03 DE=-1.26D-05 OVMax= 6.13D-04

 SCF Done:  E(RPBE+HF-PBE) =  -553.884242807     A.U. after   12 cycles
             Convg  =    0.7087D-04             -V/T =  2.0091
             S**2   =   0.0000
 KE= 5.489034064097D+02 PE=-2.689851124226D+03 EE= 8.849447748051D+02
 Leave Link  502 at Wed Jun  6 11:13:02 2007, MaxMem=   52428800 cpu:    2383.3
 (Enter /usr/local/apps/g03/l601.exe)
 Copying SCF densities to generalized density rwf, ISCF=0 IROHF=0.

 **********************************************************************

            Population analysis using the SCF density.

 **********************************************************************

 Orbital symmetries:
       Occupied  (A) (A) (A) (A) (A) (A) (A) (A) (A) (A) (A) (A)
                 (A) (A) (A) (A) (A) (A) (A) (A) (A) (A) (A) (A)
                 (A) (A) (A) (A) (A) (A) (A) (A) (A) (A) (A) (A)
                 (A) (A) (A) (A) (A) (A) (A) (A) (A)
       Virtual   (A) (A) (A) (A) (A) (A) (A) (A) (A) (A) (A) (A)
                 (A) (A) (A) (A) (A) (A) (A) (A) (A) (A) (A) (A)
                 (A) (A) (A) (A) (A) (A) (A) (A) (A) (A) (A) (A)
                 (A) (A) (A) (A) (A) (A) (A) (A) (A) (A) (A) (A)
                 (A) (A) (A) (A) (A) (A) (A) (A) (A) (A) (A) (A)
                 (A) (A) (A) (A) (A) (A) (A) (A) (A) (A) (A) (A)
                 (A) (A) (A) (A) (A) (A) (A) (A) (A) (A) (A) (A)
                 (A) (A) (A) (A) (A) (A) (A) (A) (A) (A) (A) (A)
                 (A) (A) (A) (A) (A) (A) (A) (A) (A) (A) (A) (A)
                 (A) (A) (A) (A) (A) (A) (A) (A) (A) (A) (A) (A)
                 (A) (A) (A) (A) (A) (A) (A) (A) (A) (A) (A) (A)
                 (A) (A) (A) (A) (A) (A) (A) (A) (A) (A) (A) (A)
                 (A) (A) (A) (A) (A) (A) (A) (A) (A) (A) (A) (A)
                 (A) (A) (A) (A) (A) (A) (A) (A) (A) (A) (A) (A)
                 (A) (A) (A) (A) (A) (A) (A) (A) (A) (A) (A) (A)
                 (A) (A) (A) (A) (A) (A) (A) (A) (A) (A) (A) (A)
                 (A) (A) (A) (A) (A) (A) (A) (A) (A) (A) (A) (A)
                 (A) (A) (A) (A) (A) (A) (A) (A) (A) (A) (A) (A)
                 (A) (A) (A) (A)
 The electronic state is 1-A.
 Alpha  occ. eigenvalues --  -19.16299 -14.54495 -10.32746 -10.32745 -10.29940
 Alpha  occ. eigenvalues --  -10.29936 -10.29355 -10.28784 -10.28231 -10.25623
 Alpha  occ. eigenvalues --  -10.25622 -10.22935 -10.22935  -1.07680  -1.00679
 Alpha  occ. eigenvalues --   -0.90635  -0.85843  -0.84659  -0.77825  -0.76254
 Alpha  occ. eigenvalues --   -0.71472  -0.69780  -0.63324  -0.62285  -0.58941
 Alpha  occ. eigenvalues --   -0.55538  -0.55330  -0.52711  -0.50706  -0.49720
 Alpha  occ. eigenvalues --   -0.47254  -0.46017  -0.44544  -0.44358  -0.42304
 Alpha  occ. eigenvalues --   -0.42265  -0.39854  -0.38019  -0.37114  -0.35819
 Alpha  occ. eigenvalues --   -0.32737  -0.31473  -0.27343  -0.22475  -0.19114
 Alpha virt. eigenvalues --   -0.09703  -0.05901  -0.00937  -0.00327   0.00748
 Alpha virt. eigenvalues --    0.01327   0.02363   0.03096   0.03570   0.03722
 Alpha virt. eigenvalues --    0.04141   0.05628   0.06135   0.06751   0.07332
 Alpha virt. eigenvalues --    0.08140   0.08458   0.09399   0.09451   0.10741
 Alpha virt. eigenvalues --    0.10890   0.11249   0.12133   0.12599   0.12852
 Alpha virt. eigenvalues --    0.13078   0.14461   0.14758   0.14888   0.15562
 Alpha virt. eigenvalues --    0.15740   0.16684   0.17018   0.17743   0.18249
 Alpha virt. eigenvalues --    0.18459   0.18804   0.18867   0.19578   0.20046
 Alpha virt. eigenvalues --    0.20687   0.21897   0.22320   0.22490   0.22983
 Alpha virt. eigenvalues --    0.23200   0.24252   0.24511   0.24557   0.24866
 Alpha virt. eigenvalues --    0.25616   0.26027   0.26242   0.26343   0.27460
 Alpha virt. eigenvalues --    0.27477   0.28065   0.28758   0.29257   0.29590
 Alpha virt. eigenvalues --    0.30040   0.30801   0.31969   0.32758   0.33340
 Alpha virt. eigenvalues --    0.33419   0.34068   0.35113   0.35682   0.36766
 Alpha virt. eigenvalues --    0.37249   0.37954   0.38792   0.41456   0.41900
 Alpha virt. eigenvalues --    0.45095   0.48674   0.50339   0.54439   0.60620
 Alpha virt. eigenvalues --    0.64136   0.64351   0.66339   0.67778   0.69018
 Alpha virt. eigenvalues --    0.69953   0.70272   0.72228   0.72400   0.72784
 Alpha virt. eigenvalues --    0.73473   0.74369   0.75020   0.76396   0.77342
 Alpha virt. eigenvalues --    0.78772   0.80866   0.82547   0.84327   0.85667
 Alpha virt. eigenvalues --    0.86380   0.86563   0.87431   0.89723   0.90330
 Alpha virt. eigenvalues --    0.91774   0.94934   0.95165   0.96224   0.97393
 Alpha virt. eigenvalues --    0.98732   0.99696   0.99935   1.02880   1.02897
 Alpha virt. eigenvalues --    1.07130   1.07990   1.08058   1.10590   1.11017
 Alpha virt. eigenvalues --    1.12010   1.13638   1.13762   1.16399   1.19424
 Alpha virt. eigenvalues --    1.21975   1.22241   1.24690   1.25666   1.27784
 Alpha virt. eigenvalues --    1.27839   1.29010   1.32540   1.33984   1.36252
 Alpha virt. eigenvalues --    1.39319   1.39454   1.41209   1.42178   1.44360
 Alpha virt. eigenvalues --    1.45127   1.46738   1.46783   1.47490   1.49232
 Alpha virt. eigenvalues --    1.49843   1.51183   1.53648   1.58438   1.64671
 Alpha virt. eigenvalues --    1.65617   1.77512   1.80366   1.82945   1.84468
 Alpha virt. eigenvalues --    1.85816   1.85824   1.89830   1.93043   1.93941
 Alpha virt. eigenvalues --    1.96733   1.97697   1.98887   2.00225   2.03336
 Alpha virt. eigenvalues --    2.04375   2.05908   2.08890   2.09834   2.11029
 Alpha virt. eigenvalues --    2.11966   2.12226   2.13144   2.15709   2.18312
 Alpha virt. eigenvalues --    2.19284   2.23117   2.24169   2.24560   2.28992
 Alpha virt. eigenvalues --    2.29641   2.34349   2.36346   2.43691   2.45818
 Alpha virt. eigenvalues --    2.54665   2.57693   2.59183   2.61391   2.62336
 Alpha virt. eigenvalues --    2.64456   2.65318   2.66935   2.71160   2.71825
 Alpha virt. eigenvalues --    2.73875   2.75893   2.80202   2.86786   2.87128
 Alpha virt. eigenvalues --    2.91915   3.04183   3.11439   3.21697   3.27496
 Alpha virt. eigenvalues --    3.33444   3.44544   4.23214   4.26587   4.28225
 Alpha virt. eigenvalues --    4.28329   4.31571   4.34803   4.39519   4.39800
 Alpha virt. eigenvalues --    4.44502   4.45679   4.55017   4.69627   4.89501
     Molecular Orbital Coefficients
                           1         2         3         4         5
                        (A)--O    (A)--O    (A)--O    (A)--O    (A)--O
     EIGENVALUES --   -19.16299 -14.54495 -10.32746 -10.32745 -10.29940
   1 1   C  1S          0.00000   0.00000  -0.66644   0.73677  -0.00857
   2        2S          0.00000   0.00005  -0.03202   0.03494  -0.00063
   3        2PX         0.00000  -0.00015   0.00026  -0.00021  -0.00024
   4        2PY         0.00000  -0.00024   0.00069  -0.00070   0.00000
   5        2PZ         0.00000  -0.00006   0.00029  -0.00026  -0.00001
   6        3S         -0.00001   0.00185   0.01461  -0.01757   0.00563
   7        3PX         0.00001   0.00051   0.00038  -0.00133   0.00225
[...]
    19  H   -0.000996  -0.014810   0.021196   0.000355   0.000145   0.000589
    20  H    0.000576  -0.000442  -0.000204  -0.000401   0.000096  -0.000308
    21  H   -0.000204  -0.000442   0.000576  -0.000308   0.000096  -0.000401
    22  H    0.021196  -0.014810  -0.000996   0.000589   0.000145   0.000354
              7          8          9         10         11         12
     1  C    0.067754   0.108501   0.129531  -0.044247  -0.209665  -0.152827
     2  N   -0.021235  -0.067675   0.010941  -0.013634   0.010943  -0.067689
     3  C    0.068354  -0.152850  -0.209741  -0.044263   0.129619   0.108306
     4  C   -0.254878   0.862745  -0.366952  -0.001539   0.232319  -0.683337
     5  C   -0.287517   0.000287  -0.013276  -0.006916  -0.013300   0.000328
     6  C   -0.254028  -0.683303   0.232215  -0.001520  -0.367079   0.862660
     7  C    7.743783  -0.656043   0.415134  -0.315675   0.415058  -0.655770
     8  C   -0.656043  11.125236  -3.492682   0.417748   1.135655  -2.643215
     9  C    0.415134  -3.492682  10.650525  -0.144433  -2.543489   1.135457
    10  C   -0.315675   0.417748  -0.144433   5.496394  -0.144486   0.417811
    11  C    0.415058   1.135655  -2.543489  -0.144486  10.650817  -3.493218
    12  C   -0.655770  -2.643215   1.135457   0.417811  -3.493218  11.125810
    13  O    0.008101  -0.039857  -0.135014   0.453996  -0.135012  -0.039862
    14  H    0.032974  -0.017054   0.004196  -0.003202   0.010937   0.005431
    15  H   -0.006826   0.000710  -0.000039  -0.000043   0.000341  -0.002409
    16  H   -0.000633   0.000420  -0.000031   0.000015  -0.000031   0.000420
    17  H   -0.006824  -0.002411   0.000341  -0.000043  -0.000039   0.000711
    18  H    0.032979   0.005435   0.010949  -0.003202   0.004198  -0.017056
    19  H    0.028614   0.117239   0.182602  -0.024416  -0.011227  -0.005666
    20  H    0.007746   0.000736   0.212715   0.072940   0.020286  -0.001983
    21  H    0.007744  -0.001982   0.020285   0.072942   0.212718   0.000734
    22  H    0.028625  -0.005665  -0.011227  -0.024417   0.182591   0.117240
             13         14         15         16         17         18
     1  C    0.001411   0.353426   0.046867  -0.010109  -0.009643   0.013071
     2  N    0.000699  -0.072836   0.003494   0.003870   0.003492  -0.072852
     3  C    0.001412   0.013077  -0.009643  -0.010102   0.046853   0.353428
     4  C    0.000382  -0.024378  -0.000712   0.034280   0.238879  -0.013111
     5  C    0.000065   0.020066   0.041857   0.259820   0.041852   0.020071
     6  C    0.000382  -0.013098   0.238855   0.034281  -0.000712  -0.024379
     7  C    0.008101   0.032974  -0.006826  -0.000633  -0.006824   0.032979
     8  C   -0.039857  -0.017054   0.000710   0.000420  -0.002411   0.005435
     9  C   -0.135014   0.004196  -0.000039  -0.000031   0.000341   0.010949
    10  C    0.453996  -0.003202  -0.000043   0.000015  -0.000043  -0.003202
    11  C   -0.135012   0.010937   0.000341  -0.000031  -0.000039   0.004198
    12  C   -0.039862   0.005431  -0.002409   0.000420   0.000711  -0.017056
    13  O    8.446158   0.000000   0.000000   0.000000   0.000000   0.000000
    14  H    0.000000   0.443223  -0.003258  -0.000105   0.000011  -0.000116
    15  H    0.000000  -0.003258   0.454946  -0.003485  -0.000127   0.000011
    16  H    0.000000  -0.000105  -0.003485   0.456800  -0.003484  -0.000105
    17  H    0.000000   0.000011  -0.000127  -0.003484   0.454938  -0.003258
    18  H    0.000000  -0.000116   0.000011  -0.000105  -0.003258   0.443237
    19  H   -0.000530  -0.000003   0.000000   0.000000   0.000009   0.000351
    20  H   -0.004321   0.000000   0.000000   0.000000   0.000000   0.000011
    21  H   -0.004321   0.000011   0.000000   0.000000   0.000000   0.000000
    22  H   -0.000530   0.000350   0.000009   0.000000   0.000000  -0.000003
             19         20         21         22
     1  C   -0.000996   0.000576  -0.000204   0.021196
     2  N   -0.014810  -0.000442  -0.000442  -0.014810
     3  C    0.021196  -0.000204   0.000576  -0.000996
     4  C    0.000355  -0.000401  -0.000308   0.000589
     5  C    0.000145   0.000096   0.000096   0.000145
     6  C    0.000589  -0.000308  -0.000401   0.000354
     7  C    0.028614   0.007746   0.007744   0.028625
     8  C    0.117239   0.000736  -0.001982  -0.005665
     9  C    0.182602   0.212715   0.020285  -0.011227
    10  C   -0.024416   0.072940   0.072942  -0.024417
    11  C   -0.011227   0.020286   0.212718   0.182591
    12  C   -0.005666  -0.001983   0.000734   0.117240
    13  O   -0.000530  -0.004321  -0.004321  -0.000530
    14  H   -0.000003   0.000000   0.000011   0.000350
    15  H    0.000000   0.000000   0.000000   0.000009
    16  H    0.000000   0.000000   0.000000   0.000000
    17  H    0.000009   0.000000   0.000000   0.000000
    18  H    0.000351   0.000011   0.000000  -0.000003
    19  H    0.506673  -0.004394   0.000013  -0.000138
    20  H   -0.004394   0.474562  -0.000110   0.000013
    21  H    0.000013  -0.000110   0.474561  -0.004394
    22  H   -0.000138   0.000013  -0.004394   0.506674
 Mulliken atomic charges:
              1
     1  C   -0.275153
     2  N    0.268607
     3  C   -0.275164
     4  C    0.122515
     5  C   -0.724604
     6  C    0.122471
     7  C   -0.397436
     8  C   -0.011975
     9  C   -0.088007
    10  C   -0.159810
    11  C   -0.087938
    12  C   -0.011875
    13  O   -0.553161
    14  H    0.250349
    15  H    0.239451
    16  H    0.238181
    17  H    0.239455
    18  H    0.250341
    19  H    0.204394
    20  H    0.222483
    21  H    0.222483
    22  H    0.204394
 Sum of Mulliken charges=   0.00000
 Atomic charges with hydrogens summed into heavy atoms:
              1
     1  C   -0.024804
     2  N    0.268607
     3  C   -0.024823
     4  C    0.361970
     5  C   -0.486423
     6  C    0.361922
     7  C   -0.397436
     8  C    0.192419
     9  C    0.134476
    10  C   -0.159810
    11  C    0.134545
    12  C    0.192519
    13  O   -0.553161
    14  H    0.000000
    15  H    0.000000
    16  H    0.000000
    17  H    0.000000
    18  H    0.000000
    19  H    0.000000
    20  H    0.000000
    21  H    0.000000
    22  H    0.000000
 Sum of Mulliken charges=   0.00000
 Electronic spatial extent (au):  <R**2>=  2817.6744
 Charge=     0.0000 electrons
 Dipole moment (field-independent basis, Debye):
    X=    11.2200    Y=     0.0000    Z=     0.0000  Tot=    11.2200
 Quadrupole moment (field-independent basis, Debye-Ang):
   XX=   -96.9560   YY=   -64.4310   ZZ=   -79.5769
   XY=    -0.0002   XZ=     0.0000   YZ=     1.1249
 Traceless Quadrupole moment (field-independent basis, Debye-Ang):
   XX=   -16.6347   YY=    15.8903   ZZ=     0.7444
   XY=    -0.0002   XZ=     0.0000   YZ=     1.1249
 Octapole moment (field-independent basis, Debye-Ang**2):
  XXX=   239.1828  YYY=    -0.0002  ZZZ=     0.0001  XYY=     9.6827
  XXY=    -0.0011  XXZ=    -0.0001  XZZ=    -4.8623  YZZ=     0.0001
  YYZ=     0.0002  XYZ=    11.3680
 Hexadecapole moment (field-independent basis, Debye-Ang**3):
 XXXX= -3707.8524 YYYY=  -508.4524 ZZZZ=  -133.0631 XXXY=    -0.0039
 XXXZ=    -0.0007 YYYX=    -0.0017 YYYZ=     4.0906 ZZZX=     0.0001
 ZZZY=     2.6765 XXYY=  -552.2658 XXZZ=  -579.3364 YYZZ=  -116.7173
 XXYZ=    15.3774 YYXZ=    -0.0001 ZZXY=    -0.0001
 N-N= 7.021187002035D+02 E-N=-2.689847906442D+03  KE= 5.489034064097D+02
 Orbital energies and kinetic energies (alpha):
                           1         2
       1  (A)--O      -19.16299  29.04152
       2  (A)--O      -14.54495  21.97774
       3  (A)--O      -10.32746  15.90299
       4  (A)--O      -10.32745  15.90194
       5  (A)--O      -10.29940  15.90022
       6  (A)--O      -10.29936  15.89962
       7  (A)--O      -10.29355  15.90149
       8  (A)--O      -10.28784  15.90311
       9  (A)--O      -10.28231  15.90610
      10  (A)--O      -10.25623  15.90058
      11  (A)--O      -10.25622  15.90243
      12  (A)--O      -10.22935  15.90131
      13  (A)--O      -10.22935  15.89987
      14  (A)--O       -1.07680   1.88668
      15  (A)--O       -1.00679   2.56710
      16  (A)--O       -0.90635   1.55103
      17  (A)--O       -0.85843   1.61049
      18  (A)--O       -0.84659   1.63086
      19  (A)--O       -0.77825   1.58133
      20  (A)--O       -0.76254   1.70746
      21  (A)--O       -0.71472   1.54319
      22  (A)--O       -0.69780   1.63622
      23  (A)--O       -0.63324   1.58706
      24  (A)--O       -0.62285   1.44687
      25  (A)--O       -0.58941   1.18445
      26  (A)--O       -0.55538   1.50738
      27  (A)--O       -0.55330   1.35891
      28  (A)--O       -0.52711   1.24865
      29  (A)--O       -0.50706   1.23488
      30  (A)--O       -0.49720   1.27490
      31  (A)--O       -0.47254   1.58317
      32  (A)--O       -0.46017   1.42564
      33  (A)--O       -0.44544   1.39613
      34  (A)--O       -0.44358   1.23550
      35  (A)--O       -0.42304   1.50343
      36  (A)--O       -0.42265   1.39385
      37  (A)--O       -0.39854   1.06352
      38  (A)--O       -0.38019   2.14645
      39  (A)--O       -0.37114   1.28786
      40  (A)--O       -0.35819   1.42060
      41  (A)--O       -0.32737   1.13884
      42  (A)--O       -0.31473   1.45884
      43  (A)--O       -0.27343   1.09708
      44  (A)--O       -0.22475   2.28428
      45  (A)--O       -0.19114   1.52014
      46  (A)--V       -0.09703   1.56416
      47  (A)--V       -0.05901   1.26925
      48  (A)--V       -0.00937   0.36221
      49  (A)--V       -0.00327   1.11268
      50  (A)--V        0.00748   0.37024
      51  (A)--V        0.01327   0.33917
      52  (A)--V        0.02363   1.17434
      53  (A)--V        0.03096   0.38146
      54  (A)--V        0.03570   0.35061
      55  (A)--V        0.03722   0.42342
      56  (A)--V        0.04141   0.31236
      57  (A)--V        0.05628   0.30847
      58  (A)--V        0.06135   0.33890
      59  (A)--V        0.06751   0.36482
      60  (A)--V        0.07332   0.51216
      61  (A)--V        0.08140   0.98977
      62  (A)--V        0.08458   0.31391
      63  (A)--V        0.09399   0.38013
      64  (A)--V        0.09451   0.30784
      65  (A)--V        0.10741   0.37151
      66  (A)--V        0.10890   0.37685
      67  (A)--V        0.11249   0.38533
      68  (A)--V        0.12133   0.42343
      69  (A)--V        0.12599   0.43945
      70  (A)--V        0.12852   0.41520
      71  (A)--V        0.13078   0.63572
      72  (A)--V        0.14461   0.71903
      73  (A)--V        0.14758   0.58038
      74  (A)--V        0.14888   0.56001
      75  (A)--V        0.15562   0.36464
      76  (A)--V        0.15740   0.87440
      77  (A)--V        0.16684   0.73263
      78  (A)--V        0.17018   0.58554
      79  (A)--V        0.17743   0.74334
      80  (A)--V        0.18249   0.55714
      81  (A)--V        0.18459   0.85217
      82  (A)--V        0.18804   0.59162
      83  (A)--V        0.18867   0.79656
      84  (A)--V        0.19578   0.57976
      85  (A)--V        0.20046   1.12905
      86  (A)--V        0.20687   0.67663
      87  (A)--V        0.21897   0.70591
      88  (A)--V        0.22320   0.79410
      89  (A)--V        0.22490   1.09985
      90  (A)--V        0.22983   0.69589
      91  (A)--V        0.23200   0.84015
      92  (A)--V        0.24252   1.11800
      93  (A)--V        0.24511   0.52687
      94  (A)--V        0.24557   0.66555
      95  (A)--V        0.24866   0.63683
      96  (A)--V        0.25616   1.02478
      97  (A)--V        0.26027   0.80136
      98  (A)--V        0.26242   1.01856
      99  (A)--V        0.26343   1.17134
     100  (A)--V        0.27460   0.95366
     101  (A)--V        0.27477   0.71644
     102  (A)--V        0.28065   0.95764
     103  (A)--V        0.28758   0.64523
     104  (A)--V        0.29257   1.06596
     105  (A)--V        0.29590   0.99600
     106  (A)--V        0.30040   0.86289
     107  (A)--V        0.30801   1.09858
     108  (A)--V        0.31969   0.97573
     109  (A)--V        0.32758   1.47991
     110  (A)--V        0.33340   1.17472
     111  (A)--V        0.33419   1.25949
     112  (A)--V        0.34068   0.96346
     113  (A)--V        0.35113   1.02428
     114  (A)--V        0.35682   1.02849
     115  (A)--V        0.36766   0.80345
     116  (A)--V        0.37249   1.41336
     117  (A)--V        0.37954   1.62981
     118  (A)--V        0.38792   1.26974
     119  (A)--V        0.41456   1.50950
     120  (A)--V        0.41900   1.67577
     121  (A)--V        0.45095   1.44118
     122  (A)--V        0.48674   2.36167
     123  (A)--V        0.50339   2.07958
     124  (A)--V        0.54439   2.77905
     125  (A)--V        0.60620   2.34650
     126  (A)--V        0.64136   2.40791
     127  (A)--V        0.64351   2.06377
     128  (A)--V        0.66339   2.38032
     129  (A)--V        0.67778   2.25988
     130  (A)--V        0.69018   2.21938
     131  (A)--V        0.69953   2.33146
     132  (A)--V        0.70272   2.35687
     133  (A)--V        0.72228   2.33931
     134  (A)--V        0.72400   2.23029
     135  (A)--V        0.72784   2.48344
     136  (A)--V        0.73473   2.32063
     137  (A)--V        0.74369   2.44525
     138  (A)--V        0.75020   2.24066
     139  (A)--V        0.76396   2.30886
     140  (A)--V        0.77342   2.24061
     141  (A)--V        0.78772   2.35244
     142  (A)--V        0.80866   2.27080
     143  (A)--V        0.82547   2.35463
     144  (A)--V        0.84327   2.42847
     145  (A)--V        0.85667   2.53181
     146  (A)--V        0.86380   2.69143
     147  (A)--V        0.86563   2.43530
     148  (A)--V        0.87431   2.42657
     149  (A)--V        0.89723   2.39059
     150  (A)--V        0.90330   2.58302
     151  (A)--V        0.91774   2.56451
     152  (A)--V        0.94934   2.52742
     153  (A)--V        0.95165   2.56896
     154  (A)--V        0.96224   2.52179
     155  (A)--V        0.97393   2.79994
     156  (A)--V        0.98732   2.28989
     157  (A)--V        0.99696   2.54073
     158  (A)--V        0.99935   2.70127
     159  (A)--V        1.02880   2.56832
     160  (A)--V        1.02897   2.32213
     161  (A)--V        1.07130   2.56340
     162  (A)--V        1.07990   2.14747
     163  (A)--V        1.08058   2.33084
     164  (A)--V        1.10590   2.26129
     165  (A)--V        1.11017   2.35834
     166  (A)--V        1.12010   2.41678
     167  (A)--V        1.13638   2.35341
     168  (A)--V        1.13762   2.40312
     169  (A)--V        1.16399   2.23658
     170  (A)--V        1.19424   2.27683
     171  (A)--V        1.21975   2.44193
     172  (A)--V        1.22241   2.33852
     173  (A)--V        1.24690   2.34138
     174  (A)--V        1.25666   2.37632
     175  (A)--V        1.27784   2.44565
     176  (A)--V        1.27839   2.39951
     177  (A)--V        1.29010   2.48248
     178  (A)--V        1.32540   3.54414
     179  (A)--V        1.33984   2.44357
     180  (A)--V        1.36252   2.73562
     181  (A)--V        1.39319   3.12648
     182  (A)--V        1.39454   2.59292
     183  (A)--V        1.41209   2.57447
     184  (A)--V        1.42178   2.73490
     185  (A)--V        1.44360   2.71035
     186  (A)--V        1.45127   2.89929
     187  (A)--V        1.46738   2.64927
     188  (A)--V        1.46783   2.66451
     189  (A)--V        1.47490   2.65616
     190  (A)--V        1.49232   3.02262
     191  (A)--V        1.49843   2.71407
     192  (A)--V        1.51183   2.82341
     193  (A)--V        1.53648   2.74502
     194  (A)--V        1.58438   2.92382
     195  (A)--V        1.64671   2.98846
     196  (A)--V        1.65617   2.85232
     197  (A)--V        1.77512   3.16724
     198  (A)--V        1.80366   3.22984
     199  (A)--V        1.82945   3.13273
     200  (A)--V        1.84468   3.46168
     201  (A)--V        1.85816   3.16641
     202  (A)--V        1.85824   2.84448
     203  (A)--V        1.89830   3.15908
     204  (A)--V        1.93043   3.37390
     205  (A)--V        1.93941   3.38206
     206  (A)--V        1.96733   3.50238
     207  (A)--V        1.97697   3.43052
     208  (A)--V        1.98887   3.36116
     209  (A)--V        2.00225   3.47415
     210  (A)--V        2.03336   3.47407
     211  (A)--V        2.04375   3.71153
     212  (A)--V        2.05908   3.68049
     213  (A)--V        2.08890   3.31973
     214  (A)--V        2.09834   3.37164
     215  (A)--V        2.11029   3.54801
     216  (A)--V        2.11966   3.64173
     217  (A)--V        2.12226   3.59468
     218  (A)--V        2.13144   3.72281
     219  (A)--V        2.15709   3.51568
     220  (A)--V        2.18312   3.58631
     221  (A)--V        2.19284   3.43618
     222  (A)--V        2.23117   3.62656
     223  (A)--V        2.24169   3.56005
     224  (A)--V        2.24560   3.62719
     225  (A)--V        2.28992   3.59069
     226  (A)--V        2.29641   3.57158
     227  (A)--V        2.34349   3.64031
     228  (A)--V        2.36346   3.79454
     229  (A)--V        2.43691   3.79645
     230  (A)--V        2.45818   3.89014
     231  (A)--V        2.54665   4.10118
     232  (A)--V        2.57693   4.04701
     233  (A)--V        2.59183   4.04631
     234  (A)--V        2.61391   4.23171
     235  (A)--V        2.62336   4.19969
     236  (A)--V        2.64456   4.17465
     237  (A)--V        2.65318   3.85582
     238  (A)--V        2.66935   4.14612
     239  (A)--V        2.71160   4.44726
     240  (A)--V        2.71825   4.58170
     241  (A)--V        2.73875   4.48386
     242  (A)--V        2.75893   4.52760
     243  (A)--V        2.80202   4.59574
     244  (A)--V        2.86786   4.48829
     245  (A)--V        2.87128   4.64018
     246  (A)--V        2.91915   4.71585
     247  (A)--V        3.04183   4.75467
     248  (A)--V        3.11439   4.82325
     249  (A)--V        3.21697   5.15145
     250  (A)--V        3.27496   5.12711
     251  (A)--V        3.33444   5.20224
     252  (A)--V        3.44544   5.33618
     253  (A)--V        4.23214  10.83567
     254  (A)--V        4.26587  10.46277
     255  (A)--V        4.28225  10.64281
     256  (A)--V        4.28329  10.47436
     257  (A)--V        4.31571  10.44937
     258  (A)--V        4.34803  10.42446
     259  (A)--V        4.39519  10.31054
     260  (A)--V        4.39800  10.83722
     261  (A)--V        4.44502  10.40789
     262  (A)--V        4.45679  10.73138
     263  (A)--V        4.55017  10.69506
     264  (A)--V        4.69627  10.79727
     265  (A)--V        4.89501  11.16618
 Total kinetic energy from orbitals= 5.489034064097D+02
 No NMR shielding tensors so no spin-rotation constants.
 Leave Link  601 at Wed Jun  6 11:13:06 2007, MaxMem=   52428800 cpu:       3.2
 (Enter /usr/local/apps/g03/l9999.exe)
 1\1\GINC-NODE6-3\SP\RPBE1PBE\6-31+G(d)\C11H9N1O1\R0803\06-Jun-2007\0\\
 #P PBE1PBE/6-31+g* gfoldprint POP=FULL\\rhb geometria MP2/6-31G* - PBE
 0 wizualizacja\\0,1\C,0,1.8286,1.1415,0.3285\N,0,1.1081,0.,0.\C,0,1.82
 86,-1.1414,-0.3285\C,0,3.2072,-1.1527,-0.3029\C,0,3.9391,0.,0.\C,0,3.2
 072,1.1527,0.3029\C,0,-0.2738,0.,0.\C,0,-0.9928,-1.1948,0.2948\C,0,-2.
 3612,-1.191,0.3109\C,0,-3.1494,0.,0.\C,0,-2.3612,1.191,-0.3109\C,0,-0.
 9928,1.1948,-0.2948\O,0,-4.3975,0.,0.\H,0,1.236,1.9816,0.6649\H,0,3.70
 81,2.0791,0.5703\H,0,5.024,0.,0.\H,0,3.7081,-2.0791,-0.5703\H,0,1.236,
 -1.9816,-0.6649\H,0,-0.4533,-2.0835,0.6178\H,0,-2.9149,-2.0831,0.5932\
 H,0,-2.9149,2.0831,-0.5932\H,0,-0.4533,2.0835,-0.6178\\Version=IA32L-G
 03RevD.01\State=1-A\HF=-553.8842428\RMSD=7.087e-05\Thermal=0.\Dipole=4
 .4142988,0.0000032,0.0000088\PG=C01 [X(C11H9N1O1)]\\@


 REALITY IS FOR PEOPLE WHO CAN'T FACE SCIENCE FICTION.
 Job cpu time:  0 days  0 hours 40 minutes 43.5 seconds.
 File lengths (MBytes):  RWF=     48 Int=      0 D2E=      0 Chk=     10 Scr=      1
 Normal termination of Gaussian 03 at Wed Jun  6 11:13:08 2007.
