 Entering Gaussian System, Link 0=g03
 Input=rhcr-dim.DATA
 Output=rhcr-dim.log
 Initial command:
 /aplic/g03d02/g03/l1.exe /scratch/g2novoa/Gau-17416.inp -scrdir=/scratch/g2novoa/
 Entering Link 1 = /aplic/g03d02/g03/l1.exe PID=     17417.
  
 Copyright (c) 1988,1990,1992,1993,1995,1998,2003,2004, Gaussian, Inc.
                  All Rights Reserved.
  
 This is the Gaussian(R) 03 program.  It is based on the
 the Gaussian(R) 98 system (copyright 1998, Gaussian, Inc.),
 the Gaussian(R) 94 system (copyright 1995, Gaussian, Inc.),
 the Gaussian 92(TM) system (copyright 1992, Gaussian, Inc.),
 the Gaussian 90(TM) system (copyright 1990, Gaussian, Inc.),
 the Gaussian 88(TM) system (copyright 1988, Gaussian, Inc.),
 the Gaussian 86(TM) system (copyright 1986, Carnegie Mellon
 University), and the Gaussian 82(TM) system (copyright 1983,
 Carnegie Mellon University). Gaussian is a federally registered
 trademark of Gaussian, Inc.
  
 This software contains proprietary and confidential information,
 including trade secrets, belonging to Gaussian, Inc.
  
 This software is provided under written license and may be
 used, copied, transmitted, or stored only in accord with that
 written license.
  
 The following legend is applicable only to US Government
 contracts under FAR:
  
                    RESTRICTED RIGHTS LEGEND
  
 Use, reproduction and disclosure by the US Government is
 subject to restrictions as set forth in subparagraphs (a)
 and (c) of the Commercial Computer Software - Restricted
 Rights clause in FAR 52.227-19.
  
 Gaussian, Inc.
 340 Quinnipiac St., Bldg. 40, Wallingford CT 06492
  
  
 ---------------------------------------------------------------
 Warning -- This program may not be used in any manner that
 competes with the business of Gaussian, Inc. or will provide
 assistance to any competitor of Gaussian, Inc.  The licensee
 of this program is prohibited from giving any competitor of
 Gaussian, Inc. access to this program.  By using this program,
 the user acknowledges that Gaussian, Inc. is engaged in the
 business of creating and licensing software in the field of
 computational chemistry and represents and warrants to the
 licensee that it is not a competitor of Gaussian, Inc. and that
 it will not use this program in any manner prohibited above.
 ---------------------------------------------------------------
  

 Cite this work as:
 Gaussian 03, Revision D.02,
 M. J. Frisch, G. W. Trucks, H. B. Schlegel, G. E. Scuseria, 
 M. A. Robb, J. R. Cheeseman, J. A. Montgomery, Jr., T. Vreven, 
 K. N. Kudin, J. C. Burant, J. M. Millam, S. S. Iyengar, J. Tomasi, 
 V. Barone, B. Mennucci, M. Cossi, G. Scalmani, N. Rega, 
 G. A. Petersson, H. Nakatsuji, M. Hada, M. Ehara, K. Toyota, 
 R. Fukuda, J. Hasegawa, M. Ishida, T. Nakajima, Y. Honda, O. Kitao, 
 H. Nakai, M. Klene, X. Li, J. E. Knox, H. P. Hratchian, J. B. Cross, 
 V. Bakken, C. Adamo, J. Jaramillo, R. Gomperts, R. E. Stratmann, 
 O. Yazyev, A. J. Austin, R. Cammi, C. Pomelli, J. W. Ochterski, 
 P. Y. Ayala, K. Morokuma, G. A. Voth, P. Salvador, J. J. Dannenberg, 
 V. G. Zakrzewski, S. Dapprich, A. D. Daniels, M. C. Strain, 
 O. Farkas, D. K. Malick, A. D. Rabuck, K. Raghavachari, 
 J. B. Foresman, J. V. Ortiz, Q. Cui, A. G. Baboul, S. Clifford, 
 J. Cioslowski, B. B. Stefanov, G. Liu, A. Liashenko, P. Piskorz, 
 I. Komaromi, R. L. Martin, D. J. Fox, T. Keith, M. A. Al-Laham, 
 C. Y. Peng, A. Nanayakkara, M. Challacombe, P. M. W. Gill, 
 B. Johnson, W. Chen, M. W. Wong, C. Gonzalez, and J. A. Pople, 
 Gaussian, Inc., Wallingford CT, 2004.
 
 ******************************************
 Gaussian 03:  AM64L-G03RevD.02  1-Mar-2006
                17-Mar-2008 
 ******************************************
 %chk=/home/g2novoa/rhcr-dim.chk
 %int=/scratch/g2novoa/rhcr-dim.int
 %scr=/scratch/g2novoa/rhcr-dim.scr
 %rwf=/scratch/g2novoa/rhcr-dim.rwf
 %d2e=/scratch/g2novoa/rhcr-dim.d2e
 %nprocl=4
 Will use up to    4 processors via Linda.
 %mem= 1500MB
 ----------------------------------------------------------------------
 #p hf/sto-3g nosymm nofmm maxdisk=10GB guess=core gfinput gfoldprint p
 opulation=full
 ----------------------------------------------------------------------
 1/38=1/1;
 2/15=1,17=6,18=5,40=1/2;
 3/6=3,11=9,16=1,24=11,25=1,30=1,49=2048/1,2,3;
 4/5=2/1;
 5/5=2,32=1,38=5/2;
 6/7=3,28=1/1;
 99/5=1,9=1/99;
 Leave Link    1 at Mon Mar 17 20:07:10 2008, MaxMem=  196608000 cpu:       0.2
 (Enter /aplic/g03d02/g03/l101.exe)
 ---------------------------------
 rh2(acetate)4...Cr(III)(cn)3(co)3
 ---------------------------------
 Symbolic Z-matrix:
 Charge =  0 Multiplicity = 4
 C                     13.37664   0.00054   13.3756 
 C                     13.37646  -2.27595   15.65215 
 C                     11.10009   0.00059   15.65162 
 C                     15.65285   0.0003    15.6524 
 C                     13.37647   2.27684   15.65188 
 C                     13.3763   0.00035   17.92842 
 C                     11.34651  -2.02907   8.96455 
 C                     15.40532  -2.02915   8.96385 
 C                     11.34669   2.02949   8.96457 
 C                     15.4055   2.02941   8.96387 
 Cr                    13.37647   0.00044   15.65201 
 N                     13.37657   0.00026   12.442 
 N                     10.16629   0.00053   15.65253 
 N                     13.37648   3.21014   15.65236 
 O                     11.94146  -1.43502   7.92098 
 O                     11.94131  -1.43518   10.00786 
 O                     14.81081  -1.43475   10.00717 
 O                     14.81094  -1.43452   7.92128 
 O                     11.94107   1.43486   10.00714 
 O                     11.94121   1.4351    7.92126 
 O                     14.81055   1.43537   10.00744 
 O                     14.81076   1.43453   7.92063 
 Rh                    13.37641  -0.00012   10.10545 
 Rh                    13.37561   0.00047   7.82297 
 C                     10.38831   2.98766   8.96453 
 H                     10.52745   3.63124   8.12112 
 H                     9.42399   2.52758   8.90686 
 H                     10.4568   3.56067   9.86556 
 C                     10.38846  -2.98756   8.9643 
 H                     9.75975  -2.86321   8.10747 
 H                     10.84945  -3.95261   8.93138 
 H                     9.79976  -2.90366   9.85384 
 C                     16.36407   2.98739   8.9642 
 H                     15.90739   3.94887   9.07327 
 H                     17.0374   2.81792   9.77832 
 H                     16.90425   2.95175   8.04125 
 C                     16.3637  -2.98731   8.9639 
 H                     17.32802  -2.52723   9.02155 
 H                     16.22457  -3.63089   9.80731 
 H                     16.29521  -3.56033   8.06286 
 O                     13.37653  -3.39135   15.65166 
 O                     13.37638   0.00068   19.04382 
 O                     16.76825   0.00038   15.65132 
 
                    Isotopes and Nuclear Properties:
 (Nuclear quadrupole moments (NQMom) in fm**2, nuclear magnetic moments (NMagM)
  in nuclear magnetons)

  Atom         1           2           3           4           5           6           7           8           9          10
 IAtWgt=          12          12          12          12          12          12          12          12          12          12
 AtmWgt=  12.0000000  12.0000000  12.0000000  12.0000000  12.0000000  12.0000000  12.0000000  12.0000000  12.0000000  12.0000000
 NucSpn=           0           0           0           0           0           0           0           0           0           0
 AtZEff=   0.0000000   0.0000000   0.0000000   0.0000000   0.0000000   0.0000000   0.0000000   0.0000000   0.0000000   0.0000000
 NQMom=    0.0000000   0.0000000   0.0000000   0.0000000   0.0000000   0.0000000   0.0000000   0.0000000   0.0000000   0.0000000
 NMagM=    0.0000000   0.0000000   0.0000000   0.0000000   0.0000000   0.0000000   0.0000000   0.0000000   0.0000000   0.0000000

  Atom        11          12          13          14          15          16          17          18          19          20
 IAtWgt=          52          14          14          14          16          16          16          16          16          16
 AtmWgt=  51.9405097  14.0030740  14.0030740  14.0030740  15.9949146  15.9949146  15.9949146  15.9949146  15.9949146  15.9949146
 NucSpn=           0           2           2           2           0           0           0           0           0           0
 AtZEff=   0.0000000   0.0000000   0.0000000   0.0000000   0.0000000   0.0000000   0.0000000   0.0000000   0.0000000   0.0000000
 NQMom=    0.0000000   2.0440000   2.0440000   2.0440000   0.0000000   0.0000000   0.0000000   0.0000000   0.0000000   0.0000000
 NMagM=    0.0000000   0.4037610   0.4037610   0.4037610   0.0000000   0.0000000   0.0000000   0.0000000   0.0000000   0.0000000

  Atom        21          22          23          24          25          26          27          28          29          30
 IAtWgt=          16          16         103         103          12           1           1           1          12           1
 AtmWgt=  15.9949146  15.9949146 102.9048000 102.9048000  12.0000000   1.0078250   1.0078250   1.0078250  12.0000000   1.0078250
 NucSpn=           0           0           1           1           0           1           1           1           0           1
 AtZEff=   0.0000000   0.0000000   0.0000000   0.0000000   0.0000000   0.0000000   0.0000000   0.0000000   0.0000000   0.0000000
 NQMom=    0.0000000   0.0000000   0.0000000   0.0000000   0.0000000   0.0000000   0.0000000   0.0000000   0.0000000   0.0000000
 NMagM=    0.0000000   0.0000000  -0.0884000  -0.0884000   0.0000000   2.7928460   2.7928460   2.7928460   0.0000000   2.7928460

  Atom        31          32          33          34          35          36          37          38          39          40
 IAtWgt=           1           1          12           1           1           1          12           1           1           1
 AtmWgt=   1.0078250   1.0078250  12.0000000   1.0078250   1.0078250   1.0078250  12.0000000   1.0078250   1.0078250   1.0078250
 NucSpn=           1           1           0           1           1           1           0           1           1           1
 AtZEff=   0.0000000   0.0000000   0.0000000   0.0000000   0.0000000   0.0000000   0.0000000   0.0000000   0.0000000   0.0000000
 NQMom=    0.0000000   0.0000000   0.0000000   0.0000000   0.0000000   0.0000000   0.0000000   0.0000000   0.0000000   0.0000000
 NMagM=    2.7928460   2.7928460   0.0000000   2.7928460   2.7928460   2.7928460   0.0000000   2.7928460   2.7928460   2.7928460

  Atom        41          42          43
 IAtWgt=          16          16          16
 AtmWgt=  15.9949146  15.9949146  15.9949146
 NucSpn=           0           0           0
 AtZEff=   0.0000000   0.0000000   0.0000000
 NQMom=    0.0000000   0.0000000   0.0000000
 NMagM=    0.0000000   0.0000000   0.0000000
 Leave Link  101 at Mon Mar 17 20:11:42 2008, MaxMem=  196608000 cpu:       0.1
 (Enter /aplic/g03d02/g03/l202.exe)
                          Input orientation:                          
 ---------------------------------------------------------------------
 Center     Atomic     Atomic              Coordinates (Angstroms)
 Number     Number      Type              X           Y           Z
 ---------------------------------------------------------------------
    1          6             0       13.376637    0.000543   13.375603
    2          6             0       13.376463   -2.275949   15.652145
    3          6             0       11.100087    0.000585   15.651622
    4          6             0       15.652848    0.000303   15.652401
    5          6             0       13.376471    2.276837   15.651878
    6          6             0       13.376298    0.000346   17.928421
    7          6             0       11.346507   -2.029066    8.964549
    8          6             0       15.405322   -2.029148    8.963849
    9          6             0       11.346690    2.029493    8.964572
   10          6             0       15.405505    2.029412    8.963872
   11         24             0       13.376467    0.000444   15.652012
   12          7             0       13.376568    0.000263   12.441996
   13          7             0       10.166286    0.000531   15.652527
   14          7             0       13.376478    3.210138   15.652357
   15          8             0       11.941461   -1.435023    7.920983
   16          8             0       11.941308   -1.435185   10.007864
   17          8             0       14.810805   -1.434752   10.007165
   18          8             0       14.810943   -1.434517    7.921282
   19          8             0       11.941069    1.434863   10.007139
   20          8             0       11.941206    1.435098    7.921255
   21          8             0       14.810551    1.435369   10.007437
   22          8             0       14.810764    1.434535    7.920631
   23         45             0       13.376405   -0.000123   10.105449
   24         45             0       13.375607    0.000469    7.822972
   25          6             0       10.388310    2.987656    8.964525
   26          1             0       10.527446    3.631242    8.121116
   27          1             0        9.423995    2.527579    8.906860
   28          1             0       10.456801    3.560666    9.865563
   29          6             0       10.388462   -2.987563    8.964298
   30          1             0        9.759752   -2.863209    8.107467
   31          1             0       10.849448   -3.952607    8.931385
   32          1             0        9.799761   -2.903657    9.853843
   33          6             0       16.364070    2.987389    8.964196
   34          1             0       15.907390    3.948870    9.073273
   35          1             0       17.037404    2.817924    9.778324
   36          1             0       16.904253    2.951745    8.041249
   37          6             0       16.363702   -2.987310    8.963895
   38          1             0       17.328017   -2.527233    9.021551
   39          1             0       16.224571   -3.630891    9.807309
   40          1             0       16.295205   -3.560326    8.062861
   41          8             0       13.376527   -3.391349   15.651663
   42          8             0       13.376380    0.000680   19.043821
   43          8             0       16.768247    0.000378   15.651320
 ---------------------------------------------------------------------
                    Distance matrix (angstroms):
                    1          2          3          4          5
     1  C    0.000000
     2  C    3.219481   0.000000
     3  C    3.219153   3.219394   0.000000
     4  C    3.219464   3.219200   4.552761   0.000000
     5  C    3.219153   4.552786   3.219200   3.219394   0.000000
     6  C    4.552818   3.219153   3.219464   3.219153   3.219481
     7  C    5.262902   6.993255   6.992651   8.209158   8.208650
     8  C    5.262963   6.993603   8.208604   6.994045   8.208988
     9  C    5.262559   8.208560   6.992420   8.209000   6.992944
    10  C    5.262698   8.208906   8.208457   6.993918   6.993399
    11  Cr   2.276409   2.276393   2.276381   2.276381   2.276393
    12  N    0.933607   3.935251   3.934980   3.935499   3.935243
    13  N    3.935827   3.935429   0.933801   5.486562   3.935335
    14  N    3.935113   5.486087   3.934869   3.935086   0.933301
    15  O    5.820091   7.908050   7.907697   8.695365   8.695051
    16  O    3.932321   5.884256   5.883970   6.906298   6.906063
    17  O    3.932338   5.884790   6.905760   5.885330   6.906229
    18  O    5.819472   7.907717   8.694144   7.908079   8.694480
    19  O    3.932516   6.906271   5.884267   6.906827   5.884929
    20  O    5.819649   8.694739   7.907204   8.695144   7.907657
    21  O    3.931842   6.906028   6.905286   5.885108   5.884248
    22  O    5.819774   8.694896   8.694456   7.908628   7.908151
    23  Rh   3.270154   5.995434   5.995137   5.995905   5.995618
    24  Rh   5.552631   8.153406   8.152654   8.153882   8.153136
    25  C    6.108236   9.019914   7.358430   9.020383   7.359012
    26  H    6.993532   9.986401   8.379625   9.806820   8.164786
    27  H    6.479117   9.175770   7.395053   9.523028   7.821778
    28  H    5.789671   8.722100   6.823963   8.553513   6.607128
    29  C    6.108812   7.359474   7.359059   9.020634   9.020302
    30  H    7.002584   8.387351   8.179982   9.992713   9.819312
    31  H    6.462596   7.373304   7.800778   9.158068   9.505622
    32  H    5.799242   6.841574   6.613601   8.735840   8.558481
    33  C    6.107906   9.019822   9.019545   7.359389   7.359057
    34  H    6.364279   9.404016   9.053939   7.677298   7.244260
    35  H    5.854850   8.593707   8.813896   6.660388   6.942179
    36  H    7.043366   9.884322  10.015761   8.258733   8.415606
    37  C    6.108436   7.359505   9.019915   7.359841   9.020195
    38  H    6.400065   7.722868   9.441124   7.291283   9.091482
    39  H    5.833589   6.641513   8.579275   6.904892   8.784755
    40  H    7.030153   8.232005   9.861979   8.407842  10.009229
    41  O    4.084774   1.115400   4.085021   4.084721   5.668186
    42  O    5.668218   4.084912   4.085158   4.084609   4.084870
    43  O    4.084350   4.084834   5.668161   1.115400   4.084900
                    6          7          8          9         10
     6  C    0.000000
     7  C    9.412203   0.000000
     8  C    9.412721   4.058815   0.000000
     9  C    9.412085   4.058560   5.739779   0.000000
    10  C    9.412647   5.739923   4.058560   4.058815   0.000000
    11  Cr   2.276409   7.277487   7.277844   7.277286   7.277700
    12  N    5.486425   4.509098   4.509086   4.508954   4.509033
    13  N    3.934955   7.088106   8.735303   7.087933   8.735210
    14  N    3.934874   8.734805   8.735128   7.088049   7.088504
    15  O   10.211163   1.340107   3.665909   3.666839   5.008945
    16  O    8.176501   1.339772   3.666354   3.666882   5.009392
    17  O    8.177017   3.666282   1.339875   5.008802   3.666410
    18  O   10.210772   3.666635   1.339335   5.008880   3.665966
    19  O    8.177067   3.665966   5.008880   1.339335   3.666635
    20  O   10.210845   3.666410   5.008802   1.339875   3.666282
    21  O    8.176696   5.008945   3.666839   3.665909   1.340107
    22  O   10.211290   5.008730   3.665910   3.666551   1.340129
    23  Rh   7.822972   3.088487   3.088154   3.088801   3.088601
    24  Rh  10.105449   3.088601   3.088801   3.088154   3.088487
    25  C    9.909769   5.107411   7.094979   1.355200   5.107883
    26  H   10.838938   5.781118   7.519567   1.987002   5.203033
    27  H   10.168391   4.945948   7.519527   1.987002   6.002490
    28  H    9.284881   5.731362   7.519772   1.987002   5.258085
    29  C    9.910109   1.355200   5.107587   5.107745   7.095123
    30  H   10.850368   1.987002   5.770747   5.214550   7.519687
    31  H   10.146795   1.987002   4.945376   6.002822   7.519526
    32  H    9.296433   1.987002   5.742750   5.245929   7.520079
    33  C    9.909921   7.095123   5.107332   5.108001   1.355200
    34  H   10.020525   7.519920   6.000062   4.949324   1.987002
    35  H    9.368379   7.519431   5.178915   5.802417   1.987002
    36  H   10.904742   7.519941   5.282734   5.708729   1.987002
    37  C    9.910267   5.107883   1.355200   7.094979   5.107411
    38  H   10.066631   6.002490   1.987002   7.519527   4.945948
    39  H    9.340824   5.203038   1.987002   7.519567   5.781115
    40  H   10.887041   5.258081   1.987002   7.519772   5.731366
    41  O    4.084999   7.119992   7.120285   8.844374   8.844657
    42  O    1.115400  10.480075  10.480584  10.479837  10.480385
    43  O    4.085402   8.844593   7.120310   8.844388   7.120113
                   11         12         13         14         15
    11  Cr   0.000000
    12  N    3.210016   0.000000
    13  N    3.210182   4.540201   0.000000
    14  N    3.209694   4.539793   4.539484   0.000000
    15  O    7.993035   4.955718   8.061565   9.132959   0.000000
    16  O    5.998093   3.169461   6.088860   7.449768   2.086880
    17  O    5.998450   3.169338   7.449947   7.449865   3.547576
    18  O    7.992560   4.955086   9.132599   9.132362   2.869482
    19  O    5.998543   3.169742   6.089136   6.089375   3.547999
    20  O    7.992671   4.955412   8.061073   8.061061   2.870121
    21  O    5.998069   3.169056   7.449497   6.088636   4.563346
    22  O    7.993001   4.955481   9.132895   8.061608   4.057988
    23  Rh   5.546563   2.336547   6.408974   6.408898   2.981592
    24  Rh   7.829040   4.619024   8.461778   8.461752   2.031507
    25  C    7.910436   5.472386   7.328136   7.328420   4.802224
    26  H    8.832553   6.322303   8.368671   8.063120   5.263700
    27  H    8.216174   5.874296   7.241616   7.847913   4.797062
    28  H    7.394770   5.276317   6.800582   6.491099   5.562600
    29  C    7.910872   5.472684   7.328744   9.595305   2.431191
    30  H    8.843150   6.330006   8.080484  10.338840   2.614258
    31  H    8.196296   5.859685   7.827373  10.142104   2.924317
    32  H    7.405768   5.284396   6.495644   9.153916   3.237238
    33  C    7.910404   5.472036   9.595188   7.328493   6.340781
    34  H    8.079322   5.774501   9.583123   7.087707   6.785475
    35  H    7.472674   5.332549   9.468697   6.932566   6.892453
    36  H    8.892646   6.365719  10.584962   8.392909   6.624765
    37  C    7.910825   5.472271   9.595466   9.595175   4.801403
    38  H    8.122001   5.805310  10.082154   9.617675   5.605280
    39  H    7.447069   5.313941   9.168240   9.438003   5.169632
    40  H    8.876560   6.353979  10.384911  10.581049   4.846868
    41  O    3.391793   4.669581   4.670171   6.601487   8.102470
    42  O    3.391809   6.601824   4.669644   4.669331  11.306536
    43  O    3.391780   4.669395   6.601962   4.669760   9.225853
                   16         17         18         19         20
    16  O    0.000000
    17  O    2.869498   0.000000
    18  O    3.548046   2.085883   0.000000
    19  O    2.870048   4.058334   4.562929   0.000000
    20  O    3.548585   4.563075   4.058334   2.085883   0.000000
    21  O    4.058649   2.870121   3.547999   2.869482   3.547576
    22  O    4.563508   3.547736   2.869052   3.548051   2.869558
    23  Rh   2.031853   2.031089   2.980934   2.032004   2.981670
    24  Rh   2.981957   2.981670   2.032004   2.980934   2.031089
    25  C    4.802278   6.340604   6.340635   2.430899   2.431118
    26  H    5.588157   6.897002   6.637032   3.221722   2.619487
    27  H    4.822092   6.777054   6.759348   2.956400   2.915697
    28  H    5.213687   6.628092   6.905841   2.596562   3.240653
    29  C    2.431099   4.801658   4.801893   4.801663   4.801967
    30  H    3.226445   5.582337   5.252652   5.180764   4.823780
    31  H    2.947606   4.815522   4.801513   5.601225   5.589245
    32  H    2.601223   5.224152   5.568223   4.840605   5.210132
    33  C    6.341074   4.801640   4.801368   4.802188   4.801985
    34  H    6.752134   5.572974   5.613389   4.787906   4.834957
    35  H    6.641672   4.805763   5.146745   5.285626   5.597512
    36  H    6.909671   5.242967   4.861650   5.549671   5.190997
    37  C    4.801722   2.431118   2.430899   6.340635   6.340604
    38  H    5.584086   2.915700   2.956397   6.759349   6.777053
    39  H    4.817436   2.619485   3.221723   6.637032   6.897003
    40  H    5.220697   3.240652   2.596563   6.905840   6.628093
    41  O    6.143199   6.143759   8.102193   7.563961   9.225721
    42  O    9.261191   9.261705  11.306132   9.261675  11.306137
    43  O    7.563649   6.143913   8.102065   7.564138   9.225651
                   21         22         23         24         25
    21  O    0.000000
    22  O    2.086806   0.000000
    23  Rh   2.031507   2.981452   0.000000
    24  Rh   2.981592   2.031196   2.282477   0.000000
    25  C    4.801403   4.802083   4.376899   4.376114   0.000000
    26  H    5.169628   4.817938   5.024038   4.624221   1.070000
    27  H    5.605282   5.584324   4.842256   4.814181   1.070000
    28  H    4.846871   5.221129   4.610949   5.036527   1.070000
    29  C    6.340769   6.340422   4.376623   4.376528   5.975220
    30  H    6.899147   6.634624   5.026865   4.621255   5.946617
    31  H    6.773368   6.762762   4.835914   4.820463   6.955645
    32  H    6.630140   6.904156   4.613697   5.034388   5.987057
    33  C    2.431160   2.431696   4.376509   4.376642   5.975760
    34  H    2.897137   2.975408   4.802689   4.854178   5.603213
    35  H    2.631125   3.212897   4.631556   5.016992   6.700860
    36  H    3.247904   2.588276   5.041841   4.605325   6.581127
    37  C    4.802224   4.801326   4.376114   4.376899   8.450179
    38  H    4.797064   4.821223   4.814183   4.842254   8.864355
    39  H    5.263696   5.587212   4.624220   5.024039   8.864389
    40  H    5.562602   5.212718   5.036526   4.610950   8.864563
    41  O    7.563790   9.225781   6.500838   8.531871   9.712824
    42  O    9.261285  11.306579   8.938372  11.220849  10.928988
    43  O    6.143711   8.102598   6.500868   8.531884   9.712912
                   26         27         28         29         30
    26  H    0.000000
    27  H    1.747303   0.000000
    28  H    1.747303   1.747303   0.000000
    29  C    6.673744   5.599133   6.610314   0.000000
    30  H    6.539681   5.460069   6.696487   1.070000   0.000000
    31  H    7.633805   6.635159   7.581301   1.070000   1.747303
    32  H    6.799763   5.525967   6.497639   1.070000   1.747303
    33  C    5.932244   6.955527   6.003078   8.450323   8.864564
    34  H    5.472777   6.639441   5.521535   8.864793   9.226627
    35  H    6.766637   7.668621   6.622961   8.864240   9.382497
    36  H    6.413405   7.542112   6.728191   8.864702   9.212056
    37  C    8.864389   8.864355   8.864563   5.975240   6.660407
    38  H    9.218751   9.382849   9.218920   6.955042   7.630667
    39  H    9.382913   9.218753   9.218951   5.931670   6.728499
    40  H    9.218953   9.218918   9.383242   6.002521   6.572680
    41  O   10.683781   9.805538   9.504433   7.335695   8.383012
    42  O   11.857608  11.169805  10.268293  10.929503  11.869528
    43  O   10.432389  10.286522   9.272809   9.713173  10.687791
                   31         32         33         34         35
    31  H    0.000000
    32  H    1.747303   0.000000
    33  C    8.864292   8.864878   0.000000
    34  H    9.382763   9.212467   1.070000   0.000000
    35  H    9.211308   9.226357   1.070000   1.747303   0.000000
    36  H    9.226217   9.383232   1.070000   1.747303   1.747303
    37  C    5.598201   6.624524   5.974699   6.952034   5.900670
    38  H    6.634130   7.583472   5.598530   6.630292   5.406280
    39  H    5.455520   6.466006   6.673225   7.621823   6.499903
    40  H    5.528517   6.769758   6.609820   7.586788   6.646483
    41  O    7.201616   6.829774   9.712668  10.176409   9.298021
    42  O   11.147880  10.280227  10.929115  11.018441  10.353231
    43  O    9.788555   9.518612   7.335068   7.720257   6.519440
                   36         37         38         39         40
    36  H    0.000000
    37  C    6.034555   0.000000
    38  H    5.582094   1.070000   0.000000
    39  H    6.849236   1.070000   1.747303   0.000000
    40  H    6.540525   1.070000   1.747303   1.747303   0.000000
    41  O   10.516563   7.335714   7.766553   6.505783   8.132475
    42  O   11.925236  10.929642  11.065788  10.325388  11.907215
    43  O    8.163470   7.335639   7.117303   6.901751   8.395659
                   41         42         43
    41  O    0.000000
    42  O    4.797145   0.000000
    43  O    4.796622   4.797273   0.000000
 Symmetry turned off by external request.
 Stoichiometry    C14H12CrN3O11Rh2(4)
 Framework group  C1[X(C14H12CrN3O11Rh2)]
 Deg. of freedom   123
 Full point group                 C1
 Rotational constants (GHZ):      0.1716869      0.0569836      0.0569781
 Leave Link  202 at Mon Mar 17 20:13:03 2008, MaxMem=  196608000 cpu:       0.7
 (Enter /aplic/g03d02/g03/l301.exe)
 Standard basis: STO-3G (5D, 7F)
 AO basis set in the form of general basis input:
      1 0
 S   3 1.00       0.000000000000
      0.7161683735D+02  0.1543289673D+00
      0.1304509632D+02  0.5353281423D+00
      0.3530512160D+01  0.4446345422D+00
 SP   3 1.00       0.000000000000
      0.2941249355D+01 -0.9996722919D-01  0.1559162750D+00
      0.6834830964D+00  0.3995128261D+00  0.6076837186D+00
      0.2222899159D+00  0.7001154689D+00  0.3919573931D+00
 ****
      2 0
 S   3 1.00       0.000000000000
      0.7161683735D+02  0.1543289673D+00
      0.1304509632D+02  0.5353281423D+00
      0.3530512160D+01  0.4446345422D+00
 SP   3 1.00       0.000000000000
      0.2941249355D+01 -0.9996722919D-01  0.1559162750D+00
      0.6834830964D+00  0.3995128261D+00  0.6076837186D+00
      0.2222899159D+00  0.7001154689D+00  0.3919573931D+00
 ****
      3 0
 S   3 1.00       0.000000000000
      0.7161683735D+02  0.1543289673D+00
      0.1304509632D+02  0.5353281423D+00
      0.3530512160D+01  0.4446345422D+00
 SP   3 1.00       0.000000000000
      0.2941249355D+01 -0.9996722919D-01  0.1559162750D+00
      0.6834830964D+00  0.3995128261D+00  0.6076837186D+00
      0.2222899159D+00  0.7001154689D+00  0.3919573931D+00
 ****
      4 0
 S   3 1.00       0.000000000000
      0.7161683735D+02  0.1543289673D+00
      0.1304509632D+02  0.5353281423D+00
      0.3530512160D+01  0.4446345422D+00
 SP   3 1.00       0.000000000000
      0.2941249355D+01 -0.9996722919D-01  0.1559162750D+00
      0.6834830964D+00  0.3995128261D+00  0.6076837186D+00
      0.2222899159D+00  0.7001154689D+00  0.3919573931D+00
 ****
      5 0
 S   3 1.00       0.000000000000
      0.7161683735D+02  0.1543289673D+00
      0.1304509632D+02  0.5353281423D+00
      0.3530512160D+01  0.4446345422D+00
 SP   3 1.00       0.000000000000
      0.2941249355D+01 -0.9996722919D-01  0.1559162750D+00
      0.6834830964D+00  0.3995128261D+00  0.6076837186D+00
      0.2222899159D+00  0.7001154689D+00  0.3919573931D+00
 ****
      6 0
 S   3 1.00       0.000000000000
      0.7161683735D+02  0.1543289673D+00
      0.1304509632D+02  0.5353281423D+00
      0.3530512160D+01  0.4446345422D+00
 SP   3 1.00       0.000000000000
      0.2941249355D+01 -0.9996722919D-01  0.1559162750D+00
      0.6834830964D+00  0.3995128261D+00  0.6076837186D+00
      0.2222899159D+00  0.7001154689D+00  0.3919573931D+00
 ****
      7 0
 S   3 1.00       0.000000000000
      0.7161683735D+02  0.1543289673D+00
      0.1304509632D+02  0.5353281423D+00
      0.3530512160D+01  0.4446345422D+00
 SP   3 1.00       0.000000000000
      0.2941249355D+01 -0.9996722919D-01  0.1559162750D+00
      0.6834830964D+00  0.3995128261D+00  0.6076837186D+00
      0.2222899159D+00  0.7001154689D+00  0.3919573931D+00
 ****
      8 0
 S   3 1.00       0.000000000000
      0.7161683735D+02  0.1543289673D+00
      0.1304509632D+02  0.5353281423D+00
      0.3530512160D+01  0.4446345422D+00
 SP   3 1.00       0.000000000000
      0.2941249355D+01 -0.9996722919D-01  0.1559162750D+00
      0.6834830964D+00  0.3995128261D+00  0.6076837186D+00
      0.2222899159D+00  0.7001154689D+00  0.3919573931D+00
 ****
      9 0
 S   3 1.00       0.000000000000
      0.7161683735D+02  0.1543289673D+00
      0.1304509632D+02  0.5353281423D+00
      0.3530512160D+01  0.4446345422D+00
 SP   3 1.00       0.000000000000
      0.2941249355D+01 -0.9996722919D-01  0.1559162750D+00
      0.6834830964D+00  0.3995128261D+00  0.6076837186D+00
      0.2222899159D+00  0.7001154689D+00  0.3919573931D+00
 ****
     10 0
 S   3 1.00       0.000000000000
      0.7161683735D+02  0.1543289673D+00
      0.1304509632D+02  0.5353281423D+00
      0.3530512160D+01  0.4446345422D+00
 SP   3 1.00       0.000000000000
      0.2941249355D+01 -0.9996722919D-01  0.1559162750D+00
      0.6834830964D+00  0.3995128261D+00  0.6076837186D+00
      0.2222899159D+00  0.7001154689D+00  0.3919573931D+00
 ****
     11 0
 S   3 1.00       0.000000000000
      0.1232320450D+04  0.1543289673D+00
      0.2244687082D+03  0.5353281423D+00
      0.6074999251D+02  0.4446345422D+00
 SP   3 1.00       0.000000000000
      0.9277462423D+02 -0.9996722919D-01  0.1559162750D+00
      0.2155882749D+02  0.3995128261D+00  0.6076837186D+00
      0.7011599810D+01  0.7001154689D+00  0.3919573931D+00
 SP   3 1.00       0.000000000000
      0.6899488096D+01 -0.2277635023D+00  0.4951511155D-02
      0.2104563782D+01  0.2175436044D+00  0.5777664691D+00
      0.8120061343D+00  0.9166769611D+00  0.4846460366D+00
 D   3 1.00       0.000000000000
      0.4241479241D+01  0.2197679508D+00
      0.1293786360D+01  0.6555473627D+00
      0.4991829993D+00  0.2865732590D+00
 SP   3 1.00       0.000000000000
      0.7547780537D+00 -0.3088441214D+00 -0.1215468600D+00
      0.2785605708D+00  0.1960641165D-01  0.5715227604D+00
      0.1230152851D+00  0.1131034442D+01  0.5498949471D+00
 ****
     12 0
 S   3 1.00       0.000000000000
      0.9910616896D+02  0.1543289673D+00
      0.1805231239D+02  0.5353281423D+00
      0.4885660238D+01  0.4446345422D+00
 SP   3 1.00       0.000000000000
      0.3780455879D+01 -0.9996722919D-01  0.1559162750D+00
      0.8784966449D+00  0.3995128261D+00  0.6076837186D+00
      0.2857143744D+00  0.7001154689D+00  0.3919573931D+00
 ****
     13 0
 S   3 1.00       0.000000000000
      0.9910616896D+02  0.1543289673D+00
      0.1805231239D+02  0.5353281423D+00
      0.4885660238D+01  0.4446345422D+00
 SP   3 1.00       0.000000000000
      0.3780455879D+01 -0.9996722919D-01  0.1559162750D+00
      0.8784966449D+00  0.3995128261D+00  0.6076837186D+00
      0.2857143744D+00  0.7001154689D+00  0.3919573931D+00
 ****
     14 0
 S   3 1.00       0.000000000000
      0.9910616896D+02  0.1543289673D+00
      0.1805231239D+02  0.5353281423D+00
      0.4885660238D+01  0.4446345422D+00
 SP   3 1.00       0.000000000000
      0.3780455879D+01 -0.9996722919D-01  0.1559162750D+00
      0.8784966449D+00  0.3995128261D+00  0.6076837186D+00
      0.2857143744D+00  0.7001154689D+00  0.3919573931D+00
 ****
     15 0
 S   3 1.00       0.000000000000
      0.1307093214D+03  0.1543289673D+00
      0.2380886605D+02  0.5353281423D+00
      0.6443608313D+01  0.4446345422D+00
 SP   3 1.00       0.000000000000
      0.5033151319D+01 -0.9996722919D-01  0.1559162750D+00
      0.1169596125D+01  0.3995128261D+00  0.6076837186D+00
      0.3803889600D+00  0.7001154689D+00  0.3919573931D+00
 ****
     16 0
 S   3 1.00       0.000000000000
      0.1307093214D+03  0.1543289673D+00
      0.2380886605D+02  0.5353281423D+00
      0.6443608313D+01  0.4446345422D+00
 SP   3 1.00       0.000000000000
      0.5033151319D+01 -0.9996722919D-01  0.1559162750D+00
      0.1169596125D+01  0.3995128261D+00  0.6076837186D+00
      0.3803889600D+00  0.7001154689D+00  0.3919573931D+00
 ****
     17 0
 S   3 1.00       0.000000000000
      0.1307093214D+03  0.1543289673D+00
      0.2380886605D+02  0.5353281423D+00
      0.6443608313D+01  0.4446345422D+00
 SP   3 1.00       0.000000000000
      0.5033151319D+01 -0.9996722919D-01  0.1559162750D+00
      0.1169596125D+01  0.3995128261D+00  0.6076837186D+00
      0.3803889600D+00  0.7001154689D+00  0.3919573931D+00
 ****
     18 0
 S   3 1.00       0.000000000000
      0.1307093214D+03  0.1543289673D+00
      0.2380886605D+02  0.5353281423D+00
      0.6443608313D+01  0.4446345422D+00
 SP   3 1.00       0.000000000000
      0.5033151319D+01 -0.9996722919D-01  0.1559162750D+00
      0.1169596125D+01  0.3995128261D+00  0.6076837186D+00
      0.3803889600D+00  0.7001154689D+00  0.3919573931D+00
 ****
     19 0
 S   3 1.00       0.000000000000
      0.1307093214D+03  0.1543289673D+00
      0.2380886605D+02  0.5353281423D+00
      0.6443608313D+01  0.4446345422D+00
 SP   3 1.00       0.000000000000
      0.5033151319D+01 -0.9996722919D-01  0.1559162750D+00
      0.1169596125D+01  0.3995128261D+00  0.6076837186D+00
      0.3803889600D+00  0.7001154689D+00  0.3919573931D+00
 ****
     20 0
 S   3 1.00       0.000000000000
      0.1307093214D+03  0.1543289673D+00
      0.2380886605D+02  0.5353281423D+00
      0.6443608313D+01  0.4446345422D+00
 SP   3 1.00       0.000000000000
      0.5033151319D+01 -0.9996722919D-01  0.1559162750D+00
      0.1169596125D+01  0.3995128261D+00  0.6076837186D+00
      0.3803889600D+00  0.7001154689D+00  0.3919573931D+00
 ****
     21 0
 S   3 1.00       0.000000000000
      0.1307093214D+03  0.1543289673D+00
      0.2380886605D+02  0.5353281423D+00
      0.6443608313D+01  0.4446345422D+00
 SP   3 1.00       0.000000000000
      0.5033151319D+01 -0.9996722919D-01  0.1559162750D+00
      0.1169596125D+01  0.3995128261D+00  0.6076837186D+00
      0.3803889600D+00  0.7001154689D+00  0.3919573931D+00
 ****
     22 0
 S   3 1.00       0.000000000000
      0.1307093214D+03  0.1543289673D+00
      0.2380886605D+02  0.5353281423D+00
      0.6443608313D+01  0.4446345422D+00
 SP   3 1.00       0.000000000000
      0.5033151319D+01 -0.9996722919D-01  0.1559162750D+00
      0.1169596125D+01  0.3995128261D+00  0.6076837186D+00
      0.3803889600D+00  0.7001154689D+00  0.3919573931D+00
 ****
     23 0
 S   3 1.00       0.000000000000
      0.4350077794D+04  0.1543289673D+00
      0.7923721005D+03  0.5353281423D+00
      0.2144468133D+03  0.4446345422D+00
 SP   3 1.00       0.000000000000
      0.3784334264D+03 -0.9996722919D-01  0.1559162750D+00
      0.8793978981D+02  0.3995128261D+00  0.6076837186D+00
      0.2860074899D+02  0.7001154689D+00  0.3919573931D+00
 SP   3 1.00       0.000000000000
      0.4352179455D+02 -0.2277635023D+00  0.4951511155D-02
      0.1327553454D+02  0.2175436044D+00  0.5777664691D+00
      0.5122113939D+01  0.9166769611D+00  0.4846460366D+00
 D   3 1.00       0.000000000000
      0.4352179455D+02  0.2197679508D+00
      0.1327553454D+02  0.6555473627D+00
      0.5122113939D+01  0.2865732590D+00
 SP   3 1.00       0.000000000000
      0.4540857408D+01 -0.3306100626D+00 -0.1283927634D+00
      0.1768186338D+01  0.5761095338D-01  0.5852047641D+00
      0.7783599789D+00  0.1115578745D+01  0.5439442040D+00
 D   3 1.00       0.000000000000
      0.2779066094D+01  0.1250662138D+00
      0.1082153932D+01  0.6686785577D+00
      0.4763668250D+00  0.3052468245D+00
 SP   3 1.00       0.000000000000
      0.4131354848D+00 -0.3842642608D+00 -0.3481691526D+00
      0.2224479167D+00 -0.1972567438D+00  0.6290323690D+00
      0.9825915662D-01  0.1375495512D+01  0.6662832743D+00
 ****
     24 0
 S   3 1.00       0.000000000000
      0.4350077794D+04  0.1543289673D+00
      0.7923721005D+03  0.5353281423D+00
      0.2144468133D+03  0.4446345422D+00
 SP   3 1.00       0.000000000000
      0.3784334264D+03 -0.9996722919D-01  0.1559162750D+00
      0.8793978981D+02  0.3995128261D+00  0.6076837186D+00
      0.2860074899D+02  0.7001154689D+00  0.3919573931D+00
 SP   3 1.00       0.000000000000
      0.4352179455D+02 -0.2277635023D+00  0.4951511155D-02
      0.1327553454D+02  0.2175436044D+00  0.5777664691D+00
      0.5122113939D+01  0.9166769611D+00  0.4846460366D+00
 D   3 1.00       0.000000000000
      0.4352179455D+02  0.2197679508D+00
      0.1327553454D+02  0.6555473627D+00
      0.5122113939D+01  0.2865732590D+00
 SP   3 1.00       0.000000000000
      0.4540857408D+01 -0.3306100626D+00 -0.1283927634D+00
      0.1768186338D+01  0.5761095338D-01  0.5852047641D+00
      0.7783599789D+00  0.1115578745D+01  0.5439442040D+00
 D   3 1.00       0.000000000000
      0.2779066094D+01  0.1250662138D+00
      0.1082153932D+01  0.6686785577D+00
      0.4763668250D+00  0.3052468245D+00
 SP   3 1.00       0.000000000000
      0.4131354848D+00 -0.3842642608D+00 -0.3481691526D+00
      0.2224479167D+00 -0.1972567438D+00  0.6290323690D+00
      0.9825915662D-01  0.1375495512D+01  0.6662832743D+00
 ****
     25 0
 S   3 1.00       0.000000000000
      0.7161683735D+02  0.1543289673D+00
      0.1304509632D+02  0.5353281423D+00
      0.3530512160D+01  0.4446345422D+00
 SP   3 1.00       0.000000000000
      0.2941249355D+01 -0.9996722919D-01  0.1559162750D+00
      0.6834830964D+00  0.3995128261D+00  0.6076837186D+00
      0.2222899159D+00  0.7001154689D+00  0.3919573931D+00
 ****
     26 0
 S   3 1.00       0.000000000000
      0.3425250914D+01  0.1543289673D+00
      0.6239137298D+00  0.5353281423D+00
      0.1688554040D+00  0.4446345422D+00
 ****
     27 0
 S   3 1.00       0.000000000000
      0.3425250914D+01  0.1543289673D+00
      0.6239137298D+00  0.5353281423D+00
      0.1688554040D+00  0.4446345422D+00
 ****
     28 0
 S   3 1.00       0.000000000000
      0.3425250914D+01  0.1543289673D+00
      0.6239137298D+00  0.5353281423D+00
      0.1688554040D+00  0.4446345422D+00
 ****
     29 0
 S   3 1.00       0.000000000000
      0.7161683735D+02  0.1543289673D+00
      0.1304509632D+02  0.5353281423D+00
      0.3530512160D+01  0.4446345422D+00
 SP   3 1.00       0.000000000000
      0.2941249355D+01 -0.9996722919D-01  0.1559162750D+00
      0.6834830964D+00  0.3995128261D+00  0.6076837186D+00
      0.2222899159D+00  0.7001154689D+00  0.3919573931D+00
 ****
     30 0
 S   3 1.00       0.000000000000
      0.3425250914D+01  0.1543289673D+00
      0.6239137298D+00  0.5353281423D+00
      0.1688554040D+00  0.4446345422D+00
 ****
     31 0
 S   3 1.00       0.000000000000
      0.3425250914D+01  0.1543289673D+00
      0.6239137298D+00  0.5353281423D+00
      0.1688554040D+00  0.4446345422D+00
 ****
     32 0
 S   3 1.00       0.000000000000
      0.3425250914D+01  0.1543289673D+00
      0.6239137298D+00  0.5353281423D+00
      0.1688554040D+00  0.4446345422D+00
 ****
     33 0
 S   3 1.00       0.000000000000
      0.7161683735D+02  0.1543289673D+00
      0.1304509632D+02  0.5353281423D+00
      0.3530512160D+01  0.4446345422D+00
 SP   3 1.00       0.000000000000
      0.2941249355D+01 -0.9996722919D-01  0.1559162750D+00
      0.6834830964D+00  0.3995128261D+00  0.6076837186D+00
      0.2222899159D+00  0.7001154689D+00  0.3919573931D+00
 ****
     34 0
 S   3 1.00       0.000000000000
      0.3425250914D+01  0.1543289673D+00
      0.6239137298D+00  0.5353281423D+00
      0.1688554040D+00  0.4446345422D+00
 ****
     35 0
 S   3 1.00       0.000000000000
      0.3425250914D+01  0.1543289673D+00
      0.6239137298D+00  0.5353281423D+00
      0.1688554040D+00  0.4446345422D+00
 ****
     36 0
 S   3 1.00       0.000000000000
      0.3425250914D+01  0.1543289673D+00
      0.6239137298D+00  0.5353281423D+00
      0.1688554040D+00  0.4446345422D+00
 ****
     37 0
 S   3 1.00       0.000000000000
      0.7161683735D+02  0.1543289673D+00
      0.1304509632D+02  0.5353281423D+00
      0.3530512160D+01  0.4446345422D+00
 SP   3 1.00       0.000000000000
      0.2941249355D+01 -0.9996722919D-01  0.1559162750D+00
      0.6834830964D+00  0.3995128261D+00  0.6076837186D+00
      0.2222899159D+00  0.7001154689D+00  0.3919573931D+00
 ****
     38 0
 S   3 1.00       0.000000000000
      0.3425250914D+01  0.1543289673D+00
      0.6239137298D+00  0.5353281423D+00
      0.1688554040D+00  0.4446345422D+00
 ****
     39 0
 S   3 1.00       0.000000000000
      0.3425250914D+01  0.1543289673D+00
      0.6239137298D+00  0.5353281423D+00
      0.1688554040D+00  0.4446345422D+00
 ****
     40 0
 S   3 1.00       0.000000000000
      0.3425250914D+01  0.1543289673D+00
      0.6239137298D+00  0.5353281423D+00
      0.1688554040D+00  0.4446345422D+00
 ****
     41 0
 S   3 1.00       0.000000000000
      0.1307093214D+03  0.1543289673D+00
      0.2380886605D+02  0.5353281423D+00
      0.6443608313D+01  0.4446345422D+00
 SP   3 1.00       0.000000000000
      0.5033151319D+01 -0.9996722919D-01  0.1559162750D+00
      0.1169596125D+01  0.3995128261D+00  0.6076837186D+00
      0.3803889600D+00  0.7001154689D+00  0.3919573931D+00
 ****
     42 0
 S   3 1.00       0.000000000000
      0.1307093214D+03  0.1543289673D+00
      0.2380886605D+02  0.5353281423D+00
      0.6443608313D+01  0.4446345422D+00
 SP   3 1.00       0.000000000000
      0.5033151319D+01 -0.9996722919D-01  0.1559162750D+00
      0.1169596125D+01  0.3995128261D+00  0.6076837186D+00
      0.3803889600D+00  0.7001154689D+00  0.3919573931D+00
 ****
     43 0
 S   3 1.00       0.000000000000
      0.1307093214D+03  0.1543289673D+00
      0.2380886605D+02  0.5353281423D+00
      0.6443608313D+01  0.4446345422D+00
 SP   3 1.00       0.000000000000
      0.5033151319D+01 -0.9996722919D-01  0.1559162750D+00
      0.1169596125D+01  0.3995128261D+00  0.6076837186D+00
      0.3803889600D+00  0.7001154689D+00  0.3919573931D+00
 ****

 ***********************************************************************************************************************************
 *             ATOMIC CENTER             *        ATOMIC ORBITAL       *                     GAUSSIAN FUNCTIONS                    *
 ***********************************************************************************************************************************
 *                                       * FUNCTION    SHELL    SCALE  *                                                           *
 *    ATOM   X-COORD  Y-COORD  Z-COORD   *  NUMBER     TYPE     FACTOR *  EXPONENT    S-COEF      P-COEF      D-COEF      F-COEF   *
 ***********************************************************************************************************************************
 *     C     25.27818  0.00103 25.27623                                                                                            *
+                                                1   S           5.67                                                               
+                                                                      0.222766D+010.154329D+000.000000D+000.000000D+000.000000D+00 
 *                                                                     0.405771D+000.535328D+000.000000D+000.000000D+000.000000D+00*
 *                                                                     0.109818D+000.444635D+000.000000D+000.000000D+000.000000D+00*
 *                                           2-  5   SP          1.72                                                              *
+                                                                      0.994203D+00-.999672D-010.155916D+000.000000D+000.000000D+00 
 *                                                                     0.231031D+000.399513D+000.607684D+000.000000D+000.000000D+00*
 *                                                                     0.751386D-010.700115D+000.391957D+000.000000D+000.000000D+00*
 *---------------------------------------------------------------------------------------------------------------------------------*
 *     C     25.27785 -4.30092 29.57827                                                                                            *
+                                                6   S           5.67                                                               
+                                                                      0.222766D+010.154329D+000.000000D+000.000000D+000.000000D+00 
 *                                                                     0.405771D+000.535328D+000.000000D+000.000000D+000.000000D+00*
 *                                                                     0.109818D+000.444635D+000.000000D+000.000000D+000.000000D+00*
 *                                           7- 10   SP          1.72                                                              *
+                                                                      0.994203D+00-.999672D-010.155916D+000.000000D+000.000000D+00 
 *                                                                     0.231031D+000.399513D+000.607684D+000.000000D+000.000000D+00*
 *                                                                     0.751386D-010.700115D+000.391957D+000.000000D+000.000000D+00*
 *---------------------------------------------------------------------------------------------------------------------------------*
 *     C     20.97612  0.00111 29.57728                                                                                            *
+                                               11   S           5.67                                                               
+                                                                      0.222766D+010.154329D+000.000000D+000.000000D+000.000000D+00 
 *                                                                     0.405771D+000.535328D+000.000000D+000.000000D+000.000000D+00*
 *                                                                     0.109818D+000.444635D+000.000000D+000.000000D+000.000000D+00*
 *                                          12- 15   SP          1.72                                                              *
+                                                                      0.994203D+00-.999672D-010.155916D+000.000000D+000.000000D+00 
 *                                                                     0.231031D+000.399513D+000.607684D+000.000000D+000.000000D+00*
 *                                                                     0.751386D-010.700115D+000.391957D+000.000000D+000.000000D+00*
 *---------------------------------------------------------------------------------------------------------------------------------*
 *     C     29.57960  0.00057 29.57875                                                                                            *
+                                               16   S           5.67                                                               
+                                                                      0.222766D+010.154329D+000.000000D+000.000000D+000.000000D+00 
 *                                                                     0.405771D+000.535328D+000.000000D+000.000000D+000.000000D+00*
 *                                                                     0.109818D+000.444635D+000.000000D+000.000000D+000.000000D+00*
 *                                          17- 20   SP          1.72                                                              *
+                                                                      0.994203D+00-.999672D-010.155916D+000.000000D+000.000000D+00 
 *                                                                     0.231031D+000.399513D+000.607684D+000.000000D+000.000000D+00*
 *                                                                     0.751386D-010.700115D+000.391957D+000.000000D+000.000000D+00*
 *---------------------------------------------------------------------------------------------------------------------------------*
 *     C     25.27787  4.30260 29.57776                                                                                            *
+                                               21   S           5.67                                                               
+                                                                      0.222766D+010.154329D+000.000000D+000.000000D+000.000000D+00 
 *                                                                     0.405771D+000.535328D+000.000000D+000.000000D+000.000000D+00*
 *                                                                     0.109818D+000.444635D+000.000000D+000.000000D+000.000000D+00*
 *                                          22- 25   SP          1.72                                                              *
+                                                                      0.994203D+00-.999672D-010.155916D+000.000000D+000.000000D+00 
 *                                                                     0.231031D+000.399513D+000.607684D+000.000000D+000.000000D+00*
 *                                                                     0.751386D-010.700115D+000.391957D+000.000000D+000.000000D+00*
 *---------------------------------------------------------------------------------------------------------------------------------*
 *     C     25.27754  0.00065 33.87980                                                                                            *
+                                               26   S           5.67                                                               
+                                                                      0.222766D+010.154329D+000.000000D+000.000000D+000.000000D+00 
 *                                                                     0.405771D+000.535328D+000.000000D+000.000000D+000.000000D+00*
 *                                                                     0.109818D+000.444635D+000.000000D+000.000000D+000.000000D+00*
 *                                          27- 30   SP          1.72                                                              *
+                                                                      0.994203D+00-.999672D-010.155916D+000.000000D+000.000000D+00 
 *                                                                     0.231031D+000.399513D+000.607684D+000.000000D+000.000000D+00*
 *                                                                     0.751386D-010.700115D+000.391957D+000.000000D+000.000000D+00*
 *---------------------------------------------------------------------------------------------------------------------------------*
 *     C     21.44179 -3.83438 16.94054                                                                                            *
+                                               31   S           5.67                                                               
+                                                                      0.222766D+010.154329D+000.000000D+000.000000D+000.000000D+00 
 *                                                                     0.405771D+000.535328D+000.000000D+000.000000D+000.000000D+00*
 *                                                                     0.109818D+000.444635D+000.000000D+000.000000D+000.000000D+00*
 *                                          32- 35   SP          1.72                                                              *
+                                                                      0.994203D+00-.999672D-010.155916D+000.000000D+000.000000D+00 
 *                                                                     0.231031D+000.399513D+000.607684D+000.000000D+000.000000D+00*
 *                                                                     0.751386D-010.700115D+000.391957D+000.000000D+000.000000D+00*
 *---------------------------------------------------------------------------------------------------------------------------------*
 *     C     29.11184 -3.83453 16.93922                                                                                            *
+                                               36   S           5.67                                                               
+                                                                      0.222766D+010.154329D+000.000000D+000.000000D+000.000000D+00 
 *                                                                     0.405771D+000.535328D+000.000000D+000.000000D+000.000000D+00*
 *                                                                     0.109818D+000.444635D+000.000000D+000.000000D+000.000000D+00*
 *                                          37- 40   SP          1.72                                                              *
+                                                                      0.994203D+00-.999672D-010.155916D+000.000000D+000.000000D+00 
 *                                                                     0.231031D+000.399513D+000.607684D+000.000000D+000.000000D+00*
 *                                                                     0.751386D-010.700115D+000.391957D+000.000000D+000.000000D+00*
 *---------------------------------------------------------------------------------------------------------------------------------*
 *     C     21.44214  3.83519 16.94059                                                                                            *
+                                               41   S           5.67                                                               
+                                                                      0.222766D+010.154329D+000.000000D+000.000000D+000.000000D+00 
 *                                                                     0.405771D+000.535328D+000.000000D+000.000000D+000.000000D+00*
 *                                                                     0.109818D+000.444635D+000.000000D+000.000000D+000.000000D+00*
 *                                          42- 45   SP          1.72                                                              *
+                                                                      0.994203D+00-.999672D-010.155916D+000.000000D+000.000000D+00 
 *                                                                     0.231031D+000.399513D+000.607684D+000.000000D+000.000000D+00*
 *                                                                     0.751386D-010.700115D+000.391957D+000.000000D+000.000000D+00*
 *---------------------------------------------------------------------------------------------------------------------------------*
 *     C     29.11219  3.83503 16.93926                                                                                            *
+                                               46   S           5.67                                                               
+                                                                      0.222766D+010.154329D+000.000000D+000.000000D+000.000000D+00 
 *                                                                     0.405771D+000.535328D+000.000000D+000.000000D+000.000000D+00*
 *                                                                     0.109818D+000.444635D+000.000000D+000.000000D+000.000000D+00*
 *                                          47- 50   SP          1.72                                                              *
+                                                                      0.994203D+00-.999672D-010.155916D+000.000000D+000.000000D+00 
 *                                                                     0.231031D+000.399513D+000.607684D+000.000000D+000.000000D+00*
 *                                                                     0.751386D-010.700115D+000.391957D+000.000000D+000.000000D+00*
 *---------------------------------------------------------------------------------------------------------------------------------*
 *     Cr    25.27786  0.00084 29.57802                                                                                            *
+                                               51   S          23.52                                                               
+                                                                      0.222766D+010.154329D+000.000000D+000.000000D+000.000000D+00 
 *                                                                     0.405771D+000.535328D+000.000000D+000.000000D+000.000000D+00*
 *                                                                     0.109818D+000.444635D+000.000000D+000.000000D+000.000000D+00*
 *                                          52- 55   SP          9.66                                                              *
+                                                                      0.994203D+00-.999672D-010.155916D+000.000000D+000.000000D+00 
 *                                                                     0.231031D+000.399513D+000.607684D+000.000000D+000.000000D+00*
 *                                                                     0.751386D-010.700115D+000.391957D+000.000000D+000.000000D+00*
 *                                          56- 59   SP          3.89                                                              *
+                                                                      0.455950D+00-.227764D+000.495151D-020.000000D+000.000000D+00 
 *                                                                     0.139079D+000.217544D+000.577766D+000.000000D+000.000000D+00*
 *                                                                     0.536612D-010.916677D+000.484646D+000.000000D+000.000000D+00*
 *                                          60- 64   D           3.05                                                              *
+                                                                      0.455950D+000.000000D+000.000000D+000.219768D+000.000000D+00 
 *                                                                     0.139079D+000.000000D+000.000000D+000.655547D+000.000000D+00*
 *                                                                     0.536612D-010.000000D+000.000000D+000.286573D+000.000000D+00*
 *                                          65- 68   SP          1.75                                                              *
+                                                                      0.246458D+00-.308844D+00-.121547D+000.000000D+000.000000D+00 
 *                                                                     0.909586D-010.196064D-010.571523D+000.000000D+000.000000D+00*
 *                                                                     0.401683D-010.113103D+010.549895D+000.000000D+000.000000D+00*
 *---------------------------------------------------------------------------------------------------------------------------------*
 *     N     25.27805  0.00050 23.51197                                                                                            *
+                                               69   S           6.67                                                               
+                                                                      0.222766D+010.154329D+000.000000D+000.000000D+000.000000D+00 
 *                                                                     0.405771D+000.535328D+000.000000D+000.000000D+000.000000D+00*
 *                                                                     0.109818D+000.444635D+000.000000D+000.000000D+000.000000D+00*
 *                                          70- 73   SP          1.95                                                              *
+                                                                      0.994203D+00-.999672D-010.155916D+000.000000D+000.000000D+00 
 *                                                                     0.231031D+000.399513D+000.607684D+000.000000D+000.000000D+00*
 *                                                                     0.751386D-010.700115D+000.391957D+000.000000D+000.000000D+00*
 *---------------------------------------------------------------------------------------------------------------------------------*
 *     N     19.21150  0.00100 29.57899                                                                                            *
+                                               74   S           6.67                                                               
+                                                                      0.222766D+010.154329D+000.000000D+000.000000D+000.000000D+00 
 *                                                                     0.405771D+000.535328D+000.000000D+000.000000D+000.000000D+00*
 *                                                                     0.109818D+000.444635D+000.000000D+000.000000D+000.000000D+00*
 *                                          75- 78   SP          1.95                                                              *
+                                                                      0.994203D+00-.999672D-010.155916D+000.000000D+000.000000D+00 
 *                                                                     0.231031D+000.399513D+000.607684D+000.000000D+000.000000D+00*
 *                                                                     0.751386D-010.700115D+000.391957D+000.000000D+000.000000D+00*
 *---------------------------------------------------------------------------------------------------------------------------------*
 *     N     25.27788  6.06628 29.57867                                                                                            *
+                                               79   S           6.67                                                               
+                                                                      0.222766D+010.154329D+000.000000D+000.000000D+000.000000D+00 
 *                                                                     0.405771D+000.535328D+000.000000D+000.000000D+000.000000D+00*
 *                                                                     0.109818D+000.444635D+000.000000D+000.000000D+000.000000D+00*
 *                                          80- 83   SP          1.95                                                              *
+                                                                      0.994203D+00-.999672D-010.155916D+000.000000D+000.000000D+00 
 *                                                                     0.231031D+000.399513D+000.607684D+000.000000D+000.000000D+00*
 *                                                                     0.751386D-010.700115D+000.391957D+000.000000D+000.000000D+00*
 *---------------------------------------------------------------------------------------------------------------------------------*
 *     O     22.56609 -2.71180 14.96849                                                                                            *
+                                               84   S           7.66                                                               
+                                                                      0.222766D+010.154329D+000.000000D+000.000000D+000.000000D+00 
 *                                                                     0.405771D+000.535328D+000.000000D+000.000000D+000.000000D+00*
 *                                                                     0.109818D+000.444635D+000.000000D+000.000000D+000.000000D+00*
 *                                          85- 88   SP          2.25                                                              *
+                                                                      0.994203D+00-.999672D-010.155916D+000.000000D+000.000000D+00 
 *                                                                     0.231031D+000.399513D+000.607684D+000.000000D+000.000000D+00*
 *                                                                     0.751386D-010.700115D+000.391957D+000.000000D+000.000000D+00*
 *---------------------------------------------------------------------------------------------------------------------------------*
 *     O     22.56580 -2.71211 18.91212                                                                                            *
+                                               89   S           7.66                                                               
+                                                                      0.222766D+010.154329D+000.000000D+000.000000D+000.000000D+00 
 *                                                                     0.405771D+000.535328D+000.000000D+000.000000D+000.000000D+00*
 *                                                                     0.109818D+000.444635D+000.000000D+000.000000D+000.000000D+00*
 *                                          90- 93   SP          2.25                                                              *
+                                                                      0.994203D+00-.999672D-010.155916D+000.000000D+000.000000D+00 
 *                                                                     0.231031D+000.399513D+000.607684D+000.000000D+000.000000D+00*
 *                                                                     0.751386D-010.700115D+000.391957D+000.000000D+000.000000D+00*
 *---------------------------------------------------------------------------------------------------------------------------------*
 *     O     27.98837 -2.71129 18.91080                                                                                            *
+                                               94   S           7.66                                                               
+                                                                      0.222766D+010.154329D+000.000000D+000.000000D+000.000000D+00 
 *                                                                     0.405771D+000.535328D+000.000000D+000.000000D+000.000000D+00*
 *                                                                     0.109818D+000.444635D+000.000000D+000.000000D+000.000000D+00*
 *                                          95- 98   SP          2.25                                                              *
+                                                                      0.994203D+00-.999672D-010.155916D+000.000000D+000.000000D+00 
 *                                                                     0.231031D+000.399513D+000.607684D+000.000000D+000.000000D+00*
 *                                                                     0.751386D-010.700115D+000.391957D+000.000000D+000.000000D+00*
 *---------------------------------------------------------------------------------------------------------------------------------*
 *     O     27.98863 -2.71085 14.96905                                                                                            *
+                                               99   S           7.66                                                               
+                                                                      0.222766D+010.154329D+000.000000D+000.000000D+000.000000D+00 
 *                                                                     0.405771D+000.535328D+000.000000D+000.000000D+000.000000D+00*
 *                                                                     0.109818D+000.444635D+000.000000D+000.000000D+000.000000D+00*
 *                                         100-103   SP          2.25                                                              *
+                                                                      0.994203D+00-.999672D-010.155916D+000.000000D+000.000000D+00 
 *                                                                     0.231031D+000.399513D+000.607684D+000.000000D+000.000000D+00*
 *                                                                     0.751386D-010.700115D+000.391957D+000.000000D+000.000000D+00*
 *---------------------------------------------------------------------------------------------------------------------------------*
 *     O     22.56535  2.71150 18.91075                                                                                            *
+                                              104   S           7.66                                                               
+                                                                      0.222766D+010.154329D+000.000000D+000.000000D+000.000000D+00 
 *                                                                     0.405771D+000.535328D+000.000000D+000.000000D+000.000000D+00*
 *                                                                     0.109818D+000.444635D+000.000000D+000.000000D+000.000000D+00*
 *                                         105-108   SP          2.25                                                              *
+                                                                      0.994203D+00-.999672D-010.155916D+000.000000D+000.000000D+00 
 *                                                                     0.231031D+000.399513D+000.607684D+000.000000D+000.000000D+00*
 *                                                                     0.751386D-010.700115D+000.391957D+000.000000D+000.000000D+00*
 *---------------------------------------------------------------------------------------------------------------------------------*
 *     O     22.56561  2.71194 14.96900                                                                                            *
+                                              109   S           7.66                                                               
+                                                                      0.222766D+010.154329D+000.000000D+000.000000D+000.000000D+00 
 *                                                                     0.405771D+000.535328D+000.000000D+000.000000D+000.000000D+00*
 *                                                                     0.109818D+000.444635D+000.000000D+000.000000D+000.000000D+00*
 *                                         110-113   SP          2.25                                                              *
+                                                                      0.994203D+00-.999672D-010.155916D+000.000000D+000.000000D+00 
 *                                                                     0.231031D+000.399513D+000.607684D+000.000000D+000.000000D+00*
 *                                                                     0.751386D-010.700115D+000.391957D+000.000000D+000.000000D+00*
 *---------------------------------------------------------------------------------------------------------------------------------*
 *     O     27.98789  2.71245 18.91132                                                                                            *
+                                              114   S           7.66                                                               
+                                                                      0.222766D+010.154329D+000.000000D+000.000000D+000.000000D+00 
 *                                                                     0.405771D+000.535328D+000.000000D+000.000000D+000.000000D+00*
 *                                                                     0.109818D+000.444635D+000.000000D+000.000000D+000.000000D+00*
 *                                         115-118   SP          2.25                                                              *
+                                                                      0.994203D+00-.999672D-010.155916D+000.000000D+000.000000D+00 
 *                                                                     0.231031D+000.399513D+000.607684D+000.000000D+000.000000D+00*
 *                                                                     0.751386D-010.700115D+000.391957D+000.000000D+000.000000D+00*
 *---------------------------------------------------------------------------------------------------------------------------------*
 *     O     27.98829  2.71088 14.96782                                                                                            *
+                                              119   S           7.66                                                               
+                                                                      0.222766D+010.154329D+000.000000D+000.000000D+000.000000D+00 
 *                                                                     0.405771D+000.535328D+000.000000D+000.000000D+000.000000D+00*
 *                                                                     0.109818D+000.444635D+000.000000D+000.000000D+000.000000D+00*
 *                                         120-123   SP          2.25                                                              *
+                                                                      0.994203D+00-.999672D-010.155916D+000.000000D+000.000000D+00 
 *                                                                     0.231031D+000.399513D+000.607684D+000.000000D+000.000000D+00*
 *                                                                     0.751386D-010.700115D+000.391957D+000.000000D+000.000000D+00*
 *---------------------------------------------------------------------------------------------------------------------------------*
 *     Rh    25.27774 -0.00023 19.09653                                                                                            *
+                                              124   S          44.19                                                               
+                                                                      0.222766D+010.154329D+000.000000D+000.000000D+000.000000D+00 
 *                                                                     0.405771D+000.535328D+000.000000D+000.000000D+000.000000D+00*
 *                                                                     0.109818D+000.444635D+000.000000D+000.000000D+000.000000D+00*
 *                                         125-128   SP         19.51                                                              *
+                                                                      0.994203D+00-.999672D-010.155916D+000.000000D+000.000000D+00 
 *                                                                     0.231031D+000.399513D+000.607684D+000.000000D+000.000000D+00*
 *                                                                     0.751386D-010.700115D+000.391957D+000.000000D+000.000000D+00*
 *                                         129-132   SP          9.77                                                              *
+                                                                      0.455950D+00-.227764D+000.495151D-020.000000D+000.000000D+00 
 *                                                                     0.139079D+000.217544D+000.577766D+000.000000D+000.000000D+00*
 *                                                                     0.536612D-010.916677D+000.484646D+000.000000D+000.000000D+00*
 *                                         133-137   D           9.77                                                              *
+                                                                      0.455950D+000.000000D+000.000000D+000.219768D+000.000000D+00 
 *                                                                     0.139079D+000.000000D+000.000000D+000.655547D+000.000000D+00*
 *                                                                     0.536612D-010.000000D+000.000000D+000.286573D+000.000000D+00*
 *                                         138-141   SP          4.41                                                              *
+                                                                      0.233486D+00-.330610D+00-.128393D+000.000000D+000.000000D+00 
 *                                                                     0.909182D-010.576110D-010.585205D+000.000000D+000.000000D+00*
 *                                                                     0.400224D-010.111558D+010.543944D+000.000000D+000.000000D+00*
 *                                         142-146   D           3.45                                                              *
+                                                                      0.233486D+000.000000D+000.000000D+000.125066D+000.000000D+00 
 *                                                                     0.909182D-010.000000D+000.000000D+000.668679D+000.000000D+00*
 *                                                                     0.400224D-010.000000D+000.000000D+000.305247D+000.000000D+00*
 *                                         147-150   SP          1.75                                                              *
+                                                                      0.134901D+00-.384264D+00-.348169D+000.000000D+000.000000D+00 
[...]
    10   Atom       -0.001427     -0.002882      0.004309
    11   Atom        0.298242      0.152915     -0.451157
    12   Atom       -0.046103     -0.048382      0.094485
    13   Atom        0.011721     -0.003131     -0.008590
    14   Atom       -0.001732      0.010724     -0.008992
    15   Atom        0.029441      0.049871     -0.079312
    16   Atom       -0.025720     -0.051191      0.076911
    17   Atom        0.051267      0.048588     -0.099854
    18   Atom       -0.067617     -0.064563      0.132180
    19   Atom       -0.009396     -0.009215      0.018611
    20   Atom        0.010792      0.010768     -0.021560
    21   Atom       -0.023671      0.003422      0.020249
    22   Atom        0.013333     -0.001396     -0.011937
    23   Atom       -0.976152     -0.852036      1.828188
    24   Atom        0.615678      0.575145     -1.190823
    25   Atom        0.000065      0.000146     -0.000212
    26   Atom       -0.000487      0.000232      0.000254
    27   Atom        0.000921     -0.000607     -0.000315
    28   Atom        0.000109      0.000930     -0.001039
    29   Atom        0.000070      0.000253     -0.000323
    30   Atom        0.000357     -0.000416      0.000059
    31   Atom       -0.000649      0.001081     -0.000432
    32   Atom        0.000987      0.000007     -0.000993
    33   Atom        0.000320      0.000162     -0.000482
    34   Atom       -0.000701      0.001288     -0.000588
    35   Atom        0.001373     -0.000074     -0.001299
    36   Atom        0.000172     -0.000516      0.000344
    37   Atom       -0.000030      0.000445     -0.000415
    38   Atom        0.001136     -0.000598     -0.000538
    39   Atom        0.000252      0.001744     -0.001996
    40   Atom       -0.000354     -0.000114      0.000468
    41   Atom        0.087359      0.056096     -0.143455
    42   Atom       -0.066065     -0.117048      0.183113
    43   Atom        0.029005      0.058095     -0.087100
 --------------------------------------------------------
                        XY            XZ            YZ
 --------------------------------------------------------
     1   Atom        0.001743      0.001348     -0.000933
     2   Atom       -0.011786      0.023895      0.058324
     3   Atom        0.002479     -0.005112     -0.000357
     4   Atom       -0.006002     -0.049955     -0.014969
     5   Atom        0.001208      0.000232      0.004514
     6   Atom       -0.103814      0.015363      0.000415
     7   Atom        0.018719      0.009022      0.005092
     8   Atom        0.013101     -0.010418      0.009424
     9   Atom       -0.008875      0.006295     -0.005220
    10   Atom        0.009501     -0.005539     -0.011890
    11   Atom       -0.737731     -0.505110      0.730716
    12   Atom       -0.005798      0.000785     -0.000412
    13   Atom        0.001421     -0.006100      0.002797
    14   Atom        0.000050     -0.002080      0.005697
    15   Atom       -0.117499      0.029715      0.025754
    16   Atom        0.104414      0.016341      0.032722
    17   Atom        0.168389     -0.045653      0.049889
    18   Atom       -0.191002     -0.030852      0.033948
    19   Atom       -0.005587      0.044194     -0.042835
    20   Atom        0.019327      0.038266     -0.036080
    21   Atom        0.026118     -0.031161     -0.017165
    22   Atom       -0.020238     -0.020516     -0.033826
    23   Atom        1.472886     -0.610705      0.666084
    24   Atom        0.005963     -0.048423      0.068989
    25   Atom       -0.001962      0.001849     -0.001849
    26   Atom       -0.001260      0.001668     -0.001971
    27   Atom       -0.001804      0.002117     -0.001381
    28   Atom       -0.002752      0.001526     -0.001829
    29   Atom        0.002173      0.001671      0.001771
    30   Atom        0.001513      0.001822      0.001534
    31   Atom        0.001818      0.001407      0.001957
    32   Atom        0.002749      0.001684      0.001424
    33   Atom        0.002391     -0.002266     -0.002238
    34   Atom        0.002127     -0.001472     -0.002282
    35   Atom        0.002982     -0.001970     -0.001491
    36   Atom        0.001274     -0.002134     -0.001898
    37   Atom       -0.002270     -0.002756      0.003208
    38   Atom       -0.002555     -0.002875      0.001700
    39   Atom       -0.003431     -0.001443      0.002421
    40   Atom       -0.000908     -0.002336      0.002537
    41   Atom       -0.015324      0.055608      0.068378
    42   Atom       -0.221892      0.015105      0.001692
    43   Atom       -0.008261     -0.059241     -0.035543
 --------------------------------------------------------


 ---------------------------------------------------------------------------------
              Anisotropic Spin Dipole Couplings in Principal Axis System
 ---------------------------------------------------------------------------------

       Atom             a.u.   MegaHertz   Gauss  10(-4) cm-1        Axes

              Baa    -0.0438    -5.872    -2.095    -1.959 -0.7057  0.7084  0.0126
     1 C(13)  Bbb    -0.0403    -5.402    -1.927    -1.802  0.7084  0.7058 -0.0024
              Bcc     0.0840    11.274     4.023     3.760  0.0106 -0.0073  0.9999
 
              Baa    -0.1279   -17.159    -6.123    -5.724 -0.1924 -0.2502  0.9489
     2 C(13)  Bbb     0.0101     1.361     0.486     0.454  0.9801 -0.0004  0.1986
              Bcc     0.1177    15.798     5.637     5.270 -0.0494  0.9682  0.2453
 
              Baa    -0.0296    -3.976    -1.419    -1.326 -0.0253  0.9978  0.0619
     3 C(13)  Bbb    -0.0263    -3.525    -1.258    -1.176  0.0641 -0.0602  0.9961
              Bcc     0.0559     7.501     2.677     2.502  0.9976  0.0292 -0.0624
 
              Baa    -0.0937   -12.580    -4.489    -4.196  0.2708  0.1841  0.9449
     4 C(13)  Bbb    -0.0051    -0.688    -0.246    -0.230 -0.0353  0.9828 -0.1814
              Bcc     0.0989    13.268     4.734     4.426  0.9620 -0.0158 -0.2726
 
              Baa    -0.0289    -3.878    -1.384    -1.294  0.9987 -0.0119 -0.0486
     5 C(13)  Bbb    -0.0255    -3.419    -1.220    -1.140  0.0478 -0.0573  0.9972
              Bcc     0.0544     7.297     2.604     2.434  0.0146  0.9983  0.0566
 
              Baa    -0.1574   -21.126    -7.538    -7.047  0.6582  0.7518 -0.0398
     6 C(13)  Bbb     0.0502     6.741     2.405     2.249  0.7315 -0.6511 -0.2023
              Bcc     0.1072    14.384     5.133     4.798  0.1780 -0.1041  0.9785
 
              Baa    -0.0237    -3.179    -1.134    -1.060  0.7184 -0.6898 -0.0896
     7 C(13)  Bbb     0.0017     0.222     0.079     0.074 -0.3853 -0.5018  0.7744
              Bcc     0.0220     2.956     1.055     0.986  0.5792  0.5218  0.6263
 
              Baa    -0.0234    -3.145    -1.122    -1.049  0.4817 -0.4569  0.7478
     8 C(13)  Bbb     0.0048     0.649     0.231     0.216 -0.5172  0.5406  0.6635
              Bcc     0.0186     2.496     0.891     0.833  0.7074  0.7064 -0.0241
 
              Baa    -0.0088    -1.181    -0.421    -0.394  0.7726  0.5982 -0.2127
     9 C(13)  Bbb    -0.0050    -0.669    -0.239    -0.223 -0.1631  0.5107  0.8442
              Bcc     0.0138     1.850     0.660     0.617 -0.6136  0.6175 -0.4921
 
              Baa    -0.0139    -1.861    -0.664    -0.621 -0.4409  0.8068  0.3934
    10 C(13)  Bbb    -0.0046    -0.614    -0.219    -0.205  0.7684  0.1127  0.6300
              Bcc     0.0184     2.475     0.883     0.826 -0.4639 -0.5800  0.6696
 
              Baa    -0.9399    28.404    10.135     9.475  0.0134 -0.5495  0.8354
    11 Cr(53) Bbb    -0.4403    13.307     4.748     4.439  0.7708  0.5379  0.3415
              Bcc     1.3803   -41.711   -14.883   -13.913 -0.6370  0.6393  0.4308
 
              Baa    -0.0532    -2.050    -0.731    -0.684  0.6353  0.7722 -0.0012
    12 N(14)  Bbb    -0.0413    -1.594    -0.569    -0.532  0.7722 -0.6353 -0.0064
              Bcc     0.0945     3.644     1.300     1.216  0.0057 -0.0031  1.0000
 
              Baa    -0.0114    -0.441    -0.157    -0.147  0.2588 -0.3483  0.9009
    13 N(14)  Bbb    -0.0020    -0.078    -0.028    -0.026  0.0567  0.9366  0.3458
              Bcc     0.0134     0.518     0.185     0.173  0.9643  0.0385 -0.2622
 
              Baa    -0.0110    -0.423    -0.151    -0.141  0.2142 -0.2486  0.9446
    14 N(14)  Bbb    -0.0013    -0.050    -0.018    -0.017  0.9762  0.0896 -0.1978
              Bcc     0.0123     0.473     0.169     0.158 -0.0354  0.9644  0.2619
 
              Baa    -0.1181     8.546     3.050     2.851 -0.5197 -0.4726  0.7117
    15 O(17)  Bbb    -0.0395     2.858     1.020     0.953  0.5220  0.4839  0.7024
              Bcc     0.1576   -11.404    -4.069    -3.804 -0.6764  0.7365 -0.0048
 
              Baa    -0.1445    10.456     3.731     3.488 -0.6540  0.7539 -0.0631
    16 O(17)  Bbb     0.0379    -2.746    -0.980    -0.916 -0.6025 -0.4685  0.6462
              Bcc     0.1066    -7.710    -2.751    -2.572  0.4575  0.4606  0.7606
 
              Baa    -0.1774    12.835     4.580     4.281  0.5276 -0.5383  0.6571
    17 O(17)  Bbb    -0.0410     2.965     1.058     0.989 -0.4685  0.4609  0.7537
              Bcc     0.2183   -15.799    -5.638    -5.270  0.7086  0.7055  0.0089
 
              Baa    -0.2571    18.604     6.638     6.206  0.7095  0.7047 -0.0052
    18 O(17)  Bbb     0.0826    -5.976    -2.132    -1.993  0.5202 -0.5186  0.6786
              Bcc     0.1745   -12.629    -4.506    -4.212 -0.4755  0.4841  0.7345
 
              Baa    -0.0551     3.988     1.423     1.330 -0.5547  0.5306  0.6409
    19 O(17)  Bbb    -0.0149     1.077     0.384     0.359  0.6941  0.7199  0.0048
              Bcc     0.0700    -5.065    -1.807    -1.689  0.4588 -0.4475  0.7676
 
              Baa    -0.0680     4.923     1.757     1.642 -0.4765  0.4599  0.7493
    20 O(17)  Bbb     0.0300    -2.170    -0.774    -0.724  0.6273  0.7750 -0.0768
              Bcc     0.0381    -2.753    -0.982    -0.918  0.6160 -0.4335  0.6578
 
              Baa    -0.0457     3.304     1.179     1.102  0.8777 -0.3542  0.3227
    21 O(17)  Bbb    -0.0067     0.488     0.174     0.163  0.0938  0.7875  0.6091
              Bcc     0.0524    -3.792    -1.353    -1.265 -0.4699 -0.5044  0.7245
 
              Baa    -0.0533     3.858     1.376     1.287  0.3963  0.6047  0.6909
    22 O(17)  Bbb     0.0246    -1.778    -0.635    -0.593  0.7778  0.1787 -0.6026
              Bcc     0.0287    -2.079    -0.742    -0.694 -0.4878  0.7762 -0.3995
 
              Baa    -2.5731    43.455    15.506    14.495  0.7046 -0.6807  0.2008
    23 Rh(103 Bbb     0.5579    -9.422    -3.362    -3.143  0.6998  0.7133 -0.0376
              Bcc     2.0152   -34.033   -12.144   -11.352 -0.1176  0.1670  0.9789
 
              Baa    -1.1948    20.178     7.200     6.731  0.0268 -0.0390  0.9989
    24 Rh(103 Bbb     0.5774    -9.752    -3.480    -3.253 -0.1023  0.9939  0.0416
              Bcc     0.6174   -10.427    -3.721    -3.478  0.9944  0.1033 -0.0227
 
              Baa    -0.0019    -0.259    -0.092    -0.086 -0.5743  0.1702  0.8007
    25 C(13)  Bbb    -0.0018    -0.248    -0.089    -0.083  0.5703  0.7849  0.2422
              Bcc     0.0038     0.507     0.181     0.169 -0.5873  0.5958 -0.5479
 
              Baa    -0.0019    -1.028    -0.367    -0.343 -0.5515  0.3636  0.7507
    26 H(1)   Bbb    -0.0014    -0.755    -0.269    -0.252  0.6841  0.7122  0.1576
              Bcc     0.0033     1.782     0.636     0.594  0.4773 -0.6005  0.6415
 
              Baa    -0.0019    -1.017    -0.363    -0.339 -0.5196  0.1686  0.8376
    27 H(1)   Bbb    -0.0018    -0.960    -0.343    -0.320  0.4802  0.8685  0.1230
              Bcc     0.0037     1.977     0.705     0.659  0.7067 -0.4661  0.5322
 
              Baa    -0.0023    -1.211    -0.432    -0.404  0.6936  0.6981  0.1776
    28 H(1)   Bbb    -0.0021    -1.112    -0.397    -0.371 -0.4054  0.1745  0.8973
              Bcc     0.0044     2.323     0.829     0.775 -0.5954  0.6944 -0.4040
 
              Baa    -0.0020    -0.270    -0.096    -0.090 -0.6973  0.7143 -0.0591
    29 C(13)  Bbb    -0.0018    -0.237    -0.085    -0.079 -0.4013 -0.3207  0.8580
              Bcc     0.0038     0.507     0.181     0.169  0.5939  0.6220  0.5103
 
              Baa    -0.0017    -0.926    -0.331    -0.309 -0.1264 -0.6870  0.7156
    30 H(1)   Bbb    -0.0016    -0.828    -0.295    -0.276  0.7674 -0.5248 -0.3683
              Bcc     0.0033     1.754     0.626     0.585  0.6286  0.5026  0.5936
 
              Baa    -0.0020    -1.041    -0.371    -0.347  0.7382 -0.0071 -0.6745
    31 H(1)   Bbb    -0.0017    -0.906    -0.323    -0.302 -0.4826  0.6930 -0.5355
              Bcc     0.0036     1.947     0.695     0.649  0.4712  0.7209  0.5082
 
              Baa    -0.0023    -1.225    -0.437    -0.409 -0.6347  0.7724 -0.0238
    32 H(1)   Bbb    -0.0019    -1.028    -0.367    -0.343 -0.3149 -0.2304  0.9207
              Bcc     0.0042     2.253     0.804     0.751  0.7057  0.5918  0.3895
 
              Baa    -0.0025    -0.332    -0.118    -0.111  0.3191  0.4286  0.8453
    33 C(13)  Bbb    -0.0021    -0.288    -0.103    -0.096  0.7271 -0.6828  0.0717
              Bcc     0.0046     0.620     0.221     0.207  0.6078  0.5917 -0.5295
 
              Baa    -0.0021    -1.139    -0.407    -0.380  0.4126  0.3138  0.8552
    34 H(1)   Bbb    -0.0021    -1.095    -0.391    -0.365  0.7817 -0.6040 -0.1555
              Bcc     0.0042     2.234     0.797     0.745  0.4678  0.7326 -0.4945
 
              Baa    -0.0024    -1.299    -0.463    -0.433  0.6799 -0.6682  0.3021
    35 H(1)   Bbb    -0.0023    -1.225    -0.437    -0.409  0.0811  0.4780  0.8746
              Bcc     0.0047     2.524     0.901     0.842  0.7288  0.5701 -0.3792
 
              Baa    -0.0022    -1.157    -0.413    -0.386  0.3650  0.5670  0.7385
    36 H(1)   Bbb    -0.0015    -0.778    -0.278    -0.259  0.7264 -0.6696  0.1551
              Bcc     0.0036     1.934     0.690     0.645 -0.5824 -0.4798  0.6562
 
              Baa    -0.0034    -0.461    -0.165    -0.154  0.3438 -0.4704  0.8127
    37 C(13)  Bbb    -0.0021    -0.278    -0.099    -0.093  0.7689  0.6378  0.0439
              Bcc     0.0055     0.739     0.264     0.247 -0.5390  0.6098  0.5811
 
              Baa    -0.0027    -1.465    -0.523    -0.489  0.6831  0.2778  0.6755
    38 H(1)   Bbb    -0.0022    -1.191    -0.425    -0.397  0.1818  0.8311 -0.5256
              Bcc     0.0050     2.656     0.948     0.886  0.7074 -0.4818 -0.5172
 
              Baa    -0.0032    -1.720    -0.614    -0.574 -0.1728 -0.5254  0.8331
    39 H(1)   Bbb    -0.0023    -1.238    -0.442    -0.413  0.7998  0.4189  0.4300
              Bcc     0.0055     2.958     1.056     0.987 -0.5749  0.7406  0.3478
 
              Baa    -0.0029    -1.535    -0.548    -0.512  0.4849 -0.4998  0.7177
    40 H(1)   Bbb    -0.0011    -0.613    -0.219    -0.204  0.7300  0.6832 -0.0174
              Bcc     0.0040     2.148     0.766     0.716 -0.4817  0.5324  0.6961
 
              Baa    -0.1772    12.822     4.575     4.277 -0.2129 -0.2877  0.9338
    41 O(17)  Bbb     0.0771    -5.582    -1.992    -1.862 -0.0756  0.9577  0.2778
              Bcc     0.1001    -7.240    -2.584    -2.415  0.9741  0.0114  0.2257
 
              Baa    -0.3152    22.805     8.137     7.607  0.6657  0.7458 -0.0227
    42 O(17)  Bbb     0.1299    -9.397    -3.353    -3.135  0.7301 -0.6574 -0.1863
              Bcc     0.1853   -13.408    -4.784    -4.472  0.1538 -0.1074  0.9822
 
              Baa    -0.1193     8.632     3.080     2.879  0.3731  0.1990  0.9062
    43 O(17)  Bbb     0.0513    -3.714    -1.325    -1.239  0.8802 -0.3847 -0.2779
              Bcc     0.0680    -4.918    -1.755    -1.641  0.2934  0.9013 -0.3187
 

 ---------------------------------------------------------------------------------

 No NMR shielding tensors so no spin-rotation constants.
 Leave Link  601 at Mon Mar 17 20:28:49 2008, MaxMem=  196608000 cpu:       2.8
 (Enter /aplic/g03d02/g03/l9999.exe)
 1\1\GINC-G2NODE5\SP\UHF\STO-3G\C14H12Cr1N3O11Rh2(4)\G2NOVOA\17-Mar-200
 8\0\\#p hf/sto-3g nosymm nofmm maxdisk=10GB guess=core gfinput gfoldpr
 int population=full\\rh2(acetate)4...Cr(III)(cn)3(co)3\\0,4\C,0,13.376
 63653,0.00054273,13.37560301\C,0,13.37646338,-2.27594899,15.6521452\C,
 0,11.10008663,0.00058512,15.65162245\C,0,15.65284791,0.00030328,15.652
 40113\C,0,13.37647116,2.27683739,15.65187838\C,0,13.37629802,0.0003456
 7,17.92842058\C,0,11.34650697,-2.02906648,8.96454878\C,0,15.40532213,-
 2.02914769,8.96384899\C,0,11.34668969,2.02949335,8.9645716\C,0,15.4055
 0485,2.02941214,8.96387181\Cr,0,13.37646728,0.0004442,15.65201179\N,0,
 13.3765682,0.00026266,12.44199608\N,0,10.1662857,0.00053076,15.6525273
 6\N,0,13.37647833,3.2101384,15.65235675\O,0,11.94146064,-1.43502348,7.
 92098324\O,0,11.94130797,-1.43518451,10.00786368\O,0,14.81080537,-1.43
 475192,10.00716509\O,0,14.81094293,-1.43451745,7.92128184\O,0,11.94106
 888,1.43486311,10.00713873\O,0,11.94120644,1.43509758,7.92125549\O,0,1
 4.81055118,1.43536913,10.00743734\O,0,14.81076395,1.43453474,7.9206311
 2\Rh,0,13.37640506,-0.00012336,10.10544865\Rh,0,13.37560675,0.00046902
 ,7.82297193\C,0,10.38831023,2.9876561,8.96452535\H,0,10.52744577,3.631
 24184,8.12111637\H,0,9.4239949,2.52757932,8.90685997\H,0,10.45680055,3
 .56066554,9.86556323\C,0,10.38846182,-2.98756347,8.96429757\H,0,9.7597
 5154,-2.86320852,8.10746665\H,0,10.84944766,-3.95260689,8.93138492\H,0
 ,9.79976072,-2.90365727,9.85384282\C,0,16.36407005,2.98738901,8.964196
 27\H,0,15.90738993,3.94886996,9.07327253\H,0,17.03740358,2.81792353,9.
 77832366\H,0,16.90425281,2.95174514,8.04124877\C,0,16.36370158,-2.9873
 1045,8.96389523\H,0,17.3280173,-2.52723329,9.02155142\H,0,16.22457148,
 -3.63089075,9.80730925\H,0,16.29520546,-3.5603257,8.06286149\O,0,13.37
 652657,-3.39134889,15.65166269\O,0,13.37637965,0.00068028,19.04382053\
 O,0,16.76824739,0.00037845,15.65132024\\Version=AM64L-G03RevD.02\HF=-1
 1815.2937099\S2=5.15118\S2-1=0.\S2A=4.546815\RMSD=6.577e-05\Thermal=0.
 \Dipole=3.7353132,-3.5500533,-6.3162559\PG=C01 [X(C14H12Cr1N3O11Rh2)]\
 \@


 PICNIC:  A SNACK IN THE GRASS.
 Job cpu time:  0 days  0 hours  1 minutes 34.5 seconds.
 File lengths (MBytes):  RWF=     17 Int=      0 D2E=      0 Chk=     12 Scr=     44
 Normal termination of Gaussian 03 at Mon Mar 17 20:29:37 2008.
tset: standard error: Inappropriate ioctl for device

setenv GAUSS_EXEDIR /aplic/g03d02/g03/linda-exe:/aplic/g03d02/g03/bsd:/aplic/g03d02/g03/private:/aplic/g03d02/g03
g03 rhcr-dim.DATA rhcr-dim.log
Warning: no access to tty (Bad file descriptor).
Thus no job control in this shell.
/tmp/85310.1.g2cq.q
g2node5
-rw-r--r-- 1 g2novoa g2 16 Mar 17 20:07 /scratch/g2novoa/tsnet.nodes
/scratch/g2novoa
-mp 4
g2node5
g2node7
/sgeinst/bin/lx24-amd64/qrsh -V -inherit g2node5 g03l rhcr-dim.DATA rhcr-dim.log
Valor devuelto por Gaussian:  0
-catch_rsh /sgeinst/default/spool/g2node5/active_jobs/85310.1/pe_hostfile
g2node5
g2node5
g2node5
g2node7
 
Datos del job al finalizar:
 
Mon Mar 17 20:29:42 CET 2008
job-ID  prior   name       user         state submit/start at     queue                          slots ja-task-ID 
-----------------------------------------------------------------------------------------------------------------
  85310 0.52500 rhcr-dim.d g2novoa      r     03/17/2008 20:06:36 g2cq.q@g2node5.iqtc1.qt.ub.es      4        
  85313 0.52500 rhcr-sing. g2novoa      r     03/17/2008 20:17:09 g2cq.q@g2node7.iqtc1.qt.ub.es      4        
  85255 0.52500 rhcr.dat   g2novoa      r     03/17/2008 06:37:29 g2cq.q@g2node8.iqtc1.qt.ub.es      4        
 
-rw-rw-r-- 1 g2novoa g2        0 Mar 17 20:07 /scratch/g2novoa/rhcr-dim.d2e
-rw-rw-r-- 1 g2novoa g2        0 Mar 17 20:07 /scratch/g2novoa/rhcr-dim.int
-rw-rw-r-- 1 g2novoa g2 17293312 Mar 17 20:29 /scratch/g2novoa/rhcr-dim.rwf
-rw-rw-r-- 1 g2novoa g2 46080000 Mar 17 20:29 /scratch/g2novoa/rhcr-dim.scr
ls: No match.
