 Entering Gaussian System, Link 0=g09
 Input=/home/benjfitz/c3h5o-int7-cis-cis-ts-int8_irc-f-ub3lyp-avdz-a2.com
 Output=/home/benjfitz/c3h5o-int7-cis-cis-ts-int8_irc-f-ub3lyp-avdz-a2.log
 Initial command:
 /home/g09/l1.exe /scratch/benjfitz/Gau-4050.inp -scrdir=/scratch/benjfitz/
 Entering Link 1 = /home/g09/l1.exe PID=      4051.
  
 Copyright (c) 1988,1990,1992,1993,1995,1998,2003,2009, Gaussian, Inc.
                  All Rights Reserved.
  
 This is part of the Gaussian(R) 09 program.  It is based on
 the Gaussian(R) 03 system (copyright 2003, Gaussian, Inc.),
 the Gaussian(R) 98 system (copyright 1998, Gaussian, Inc.),
 the Gaussian(R) 94 system (copyright 1995, Gaussian, Inc.),
 the Gaussian 92(TM) system (copyright 1992, Gaussian, Inc.),
 the Gaussian 90(TM) system (copyright 1990, Gaussian, Inc.),
 the Gaussian 88(TM) system (copyright 1988, Gaussian, Inc.),
 the Gaussian 86(TM) system (copyright 1986, Carnegie Mellon
 University), and the Gaussian 82(TM) system (copyright 1983,
 Carnegie Mellon University). Gaussian is a federally registered
 trademark of Gaussian, Inc.
  
 This software contains proprietary and confidential information,
 including trade secrets, belonging to Gaussian, Inc.
  
 This software is provided under written license and may be
 used, copied, transmitted, or stored only in accord with that
 written license.
  
 The following legend is applicable only to US Government
 contracts under FAR:
  
                    RESTRICTED RIGHTS LEGEND
  
 Use, reproduction and disclosure by the US Government is
 subject to restrictions as set forth in subparagraphs (a)
 and (c) of the Commercial Computer Software - Restricted
 Rights clause in FAR 52.227-19.
  
 Gaussian, Inc.
 340 Quinnipiac St., Bldg. 40, Wallingford CT 06492
  
  
 ---------------------------------------------------------------
 Warning -- This program may not be used in any manner that
 competes with the business of Gaussian, Inc. or will provide
 assistance to any competitor of Gaussian, Inc.  The licensee
 of this program is prohibited from giving any competitor of
 Gaussian, Inc. access to this program.  By using this program,
 the user acknowledges that Gaussian, Inc. is engaged in the
 business of creating and licensing software in the field of
 computational chemistry and represents and warrants to the
 licensee that it is not a competitor of Gaussian, Inc. and that
 it will not use this program in any manner prohibited above.
 ---------------------------------------------------------------
  

 Cite this work as:
 Gaussian 09, Revision A.02,
 M. J. Frisch, G. W. Trucks, H. B. Schlegel, G. E. Scuseria, 
 M. A. Robb, J. R. Cheeseman, G. Scalmani, V. Barone, B. Mennucci, 
 G. A. Petersson, H. Nakatsuji, M. Caricato, X. Li, H. P. Hratchian, 
 A. F. Izmaylov, J. Bloino, G. Zheng, J. L. Sonnenberg, M. Hada, 
 M. Ehara, K. Toyota, R. Fukuda, J. Hasegawa, M. Ishida, T. Nakajima, 
 Y. Honda, O. Kitao, H. Nakai, T. Vreven, J. A. Montgomery, Jr., 
 J. E. Peralta, F. Ogliaro, M. Bearpark, J. J. Heyd, E. Brothers, 
 K. N. Kudin, V. N. Staroverov, R. Kobayashi, J. Normand, 
 K. Raghavachari, A. Rendell, J. C. Burant, S. S. Iyengar, J. Tomasi, 
 M. Cossi, N. Rega, J. M. Millam, M. Klene, J. E. Knox, J. B. Cross, 
 V. Bakken, C. Adamo, J. Jaramillo, R. Gomperts, R. E. Stratmann, 
 O. Yazyev, A. J. Austin, R. Cammi, C. Pomelli, J. W. Ochterski, 
 R. L. Martin, K. Morokuma, V. G. Zakrzewski, G. A. Voth, 
 P. Salvador, J. J. Dannenberg, S. Dapprich, A. D. Daniels, 
 O. Farkas, J. B. Foresman, J. V. Ortiz, J. Cioslowski, 
 and D. J. Fox, Gaussian, Inc., Wallingford CT, 2009.
 
 ******************************************
 Gaussian 09:  EM64L-G09RevA.02 11-Jun-2009
                29-Oct-2009 
 ******************************************
 %Mem=1200MW
 %NProcShared=8
 Will use up to    8 processors via shared memory.
 %RWF=/scratch/benjfitz/a,5000MW
 %NoSave
 %chk=/home/benjfitz/c3h5o-int7-cis-cis-ts-int8_irc-f-ub3lyp-avdz-a2.chk
 ----------------------------------------------------------------------
 #P ub3lyp/aug-cc-pvdz 5D 7F SCF(xqc,tight) int(grid=ultrafine) irc(Max
 cycle=25,rcfc,forward,maxpoints=40,stepsize=10) guess(read) geom(allch
 eck) nosymm MaxDisk=5000MW
 ----------------------------------------------------------------------
 1/6=25,10=5,14=-1,18=20,22=1,26=3,29=7,38=1,39=10,42=40,44=3/1,23;
 2/9=110,12=2,15=1,29=1,40=1/2;
 3/5=16,7=10,8=11,11=2,14=-4,16=1,25=1,30=1,71=2,74=-5,75=-5,116=2/1,2,3;
 4/5=1/1;
 5/5=2,8=3,13=1,32=2,38=6/2,8;
 8/6=4,10=90,11=11/1;
 11/6=1,8=1,9=11,15=111,16=1,31=1/1,2,10;
 10/6=1,31=1/2;
 6/7=2,8=2,9=2,10=2,28=1/1;
 7/10=1,25=1,30=1/1,2,3,16;
 1/6=25,14=-1,18=20,22=1,39=10,42=40,44=3/23(3);
 2/9=110,15=1,29=1/2;
 7/9=1,25=1,30=1,44=-1/16;
 99//99;
 2/9=110,15=1,29=1/2;
 3/5=16,7=10,8=11,11=2,14=-2,16=1,25=1,30=1,71=2,74=-5,75=-5,116=2/1,2,3;
 4/5=5,16=3/1;
 5/5=2,8=3,13=1,32=2,38=5/2,8;
 8/6=4,10=90,11=11/1;
 11/6=1,8=1,9=11,15=111,16=1,31=1/1,2,10;
 10/6=1,31=1/2;
 7/10=1,25=1,30=1/1,2,3,16;
 1/6=25,14=-1,18=20,22=1,39=10,42=40,44=3/23(-8);
 2/9=110,15=1,29=1/2;
 6/7=2,8=2,9=2,10=2,19=2,28=1/1;
 7/9=1,25=1,30=1,44=-1/16;
 99/9=1/99;
 Leave Link    1 at Thu Oct 29 18:28:35 2009, MaxMem= 1258291200 cpu:       0.8
 (Enter /home/g09/l101.exe)
 --------------------
 int7 cis cis ts int8
 --------------------
 Redundant internal coordinates taken from checkpoint file:
 /home/benjfitz/c3h5o-int7-cis-cis-ts-int8_irc-f-ub3lyp-avdz-a2.chk
 Charge =  0 Multiplicity = 2
 C,0,0.1355373257,0.0604907065,-0.0742292793
 C,0,0.0293216663,0.0692590477,1.3594790643
 C,0,0.8689530356,-0.1630221566,2.3835980922
 O,0,2.2131776151,0.1472691674,2.4024333055
 H,0,0.5523262247,-0.5593280334,3.346832294
 H,0,0.9544577514,-0.4371039578,-0.6112735529
 H,0,-0.7383959226,-0.665692136,0.6067555352
 H,0,-0.5146934366,0.7138779009,-0.6578109251
 H,0,2.4679110384,0.5104489998,1.5427873921
 Recover connectivity data from disk.
                    Isotopes and Nuclear Properties:
 (Nuclear quadrupole moments (NQMom) in fm**2, nuclear magnetic moments (NMagM)
  in nuclear magnetons)

  Atom         1           2           3           4           5           6           7           8           9
 IAtWgt=          12          12          12          16           1           1           1           1           1
 AtmWgt=  12.0000000  12.0000000  12.0000000  15.9949146   1.0078250   1.0078250   1.0078250   1.0078250   1.0078250
 NucSpn=           0           0           0           0           1           1           1           1           1
 AtZEff=  -3.6000000  -3.6000000  -3.6000000  -5.6000000  -1.0000000  -1.0000000  -1.0000000  -1.0000000  -1.0000000
 NQMom=    0.0000000   0.0000000   0.0000000   0.0000000   0.0000000   0.0000000   0.0000000   0.0000000   0.0000000
 NMagM=    0.0000000   0.0000000   0.0000000   0.0000000   2.7928460   2.7928460   2.7928460   2.7928460   2.7928460
 Leave Link  101 at Thu Oct 29 18:28:36 2009, MaxMem= 1258291200 cpu:       1.1
 (Enter /home/g09/l123.exe)
 IRC-IRC-IRC-IRC-IRC-IRC-IRC-IRC-IRC-IRC-IRC-IRC-IRC-IRC-IRC-IRC-IRC-IRC
 ------------------------------------------------------------------------
 INPUT DATA FOR L123
 ------------------------------------------------------------------------
 GENERAL PARAMETERS:
 Rxn path following direction = Forward
 Maximum points per path      =  40
 Step size                    =   0.100 bohr
 Integration scheme           = HPC                                 
    Redo corrector integration= Yes                                 
    Max correction cycles     =  25
 Initial Hessian              = ReadFC from chk
 Hessian eveluation           = All updating
    Hessian updating method   = Bofill                              
 ------------------------------------------------------------------------
          ******** Start new reaction path calculation ********
 RCFC Option Requested - Data Read From Chk File:
 /home/benjfitz/c3h5o-int7-cis-cis-ts-int8_irc-f-ub3lyp-avdz-a2.chk
   Energy From Chk =   -192.4071610

 Current Structure is TS -> diagonalize the Hessian.
 Supplied step size of   0.1000 bohr.
    Integration on MW PES will use step size of   0.1062 sqrt(amu)*bohr.
 Point Number:   0          Path Number:   1
 Calculating another point on the path.
 Point Number  1 in FORWARD path direction.
 Using LQA Reaction Path Following.
 IRC-IRC-IRC-IRC-IRC-IRC-IRC-IRC-IRC-IRC-IRC-IRC-IRC-IRC-IRC-IRC-IRC-IRC
 Leave Link  123 at Thu Oct 29 18:28:36 2009, MaxMem= 1258291200 cpu:       0.1
 (Enter /home/g09/l202.exe)
                          Input orientation:                          
 ---------------------------------------------------------------------
 Center     Atomic      Atomic             Coordinates (Angstroms)
 Number     Number       Type             X           Y           Z
 ---------------------------------------------------------------------
      1          6           0       -0.753881    0.031858   -1.593194
      2          6           0       -0.855275    0.045081   -0.158571
      3          6           0       -0.017516   -0.189397    0.863390
      4          8           0        1.327291    0.120573    0.882083
      5          1           0       -0.334015   -0.585325    1.826894
      6          1           0        0.066105   -0.465418   -2.129788
      7          1           0       -1.613594   -0.700224   -0.963906
      8          1           0       -1.396828    0.692401   -2.177392
      9          1           0        1.581767    0.484004    0.022627
 ---------------------------------------------------------------------
                    Distance matrix (angstroms):
                    1          2          3          4          5
     1  C    0.000000
     2  C    1.438262   0.000000
     3  C    2.574100   1.342097   0.000000
     4  O    3.235142   2.419143   1.380195   0.000000
     5  H    3.500601   2.147370   1.088701   2.037375   0.000000
     6  H    1.098905   2.235005   3.007041   3.317431   3.978669
     7  H    1.292693   1.333826   2.479399   3.567939   3.072310
     8  H    1.091322   2.188136   3.453465   4.136205   4.335488
     9  H    2.875859   2.482873   1.928227   0.967216   2.840610
                    6          7          8          9
     6  H    0.000000
     7  H    2.058107   0.000000
     8  H    1.866275   1.859823   0.000000
     9  H    2.798486   3.547672   3.708846   0.000000
 Symmetry turned off by external request.
 Stoichiometry    C3H5O(2)
 Framework group  C1[X(C3H5O)]
 Deg. of freedom    21
 Full point group                 C1      NOp   1
 Rotational constants (GHZ):     23.3127932      5.0845224      4.3010914
 Leave Link  202 at Thu Oct 29 18:28:36 2009, MaxMem= 1258291200 cpu:       0.0
 (Enter /home/g09/l301.exe)
 Standard basis: Aug-CC-pVDZ (5D, 7F)
 Ernie: Thresh=  0.10000D-02 Tol=  0.10000D-05 Strict=F.
 Ernie:  8 primitive shells out of 135 were deleted.
 Integral buffers will be    131072 words long.
 Raffenetti 2 integral format.
 Two-electron integral symmetry is turned off.
   137 basis functions,   227 primitive gaussians,   145 cartesian basis functions
    16 alpha electrons       15 beta electrons
       nuclear repulsion energy       109.5502793123 Hartrees.
 IExCor=  402 DFT=T Ex+Corr=B3LYP ExCW=0 ScaHFX=  0.200000
 ScaDFX=  0.800000  0.720000  1.000000  0.810000 ScalE2=  1.000000  1.000000
 IRadAn=      5 IRanWt=     -1 IRanGd=            0 ICorTp=0
 NAtoms=    9 NActive=    9 NUniq=    9 SFac= 7.50D-01 NAtFMM=   80 NAOKFM=F Big=F
 Leave Link  301 at Thu Oct 29 18:28:36 2009, MaxMem= 1258291200 cpu:       0.8
 (Enter /home/g09/l302.exe)
 NPDir=0 NMtPBC=     1 NCelOv=     1 NCel=       1 NClECP=     1 NCelD=      1
         NCelK=      1 NCelE2=     1 NClLst=     1 CellRange=     0.0.
 One-electron integrals computed using PRISM.
 NBasis=   137 RedAO= T  NBF=   137
 NBsUse=   137 1.00D-06 NBFU=   137
 Precomputing XC quadrature grid using
 IXCGrd= 2 IRadAn=           5 IRanWt=          -1 IRanGd=           0 AccXCQ= 1.00D-10.
 NRdTot=     769 NPtTot=      206766 NUsed=      212279 NTot=      212311
 NSgBfM=   145   145   145   145   145 NAtAll=     9     9.
 Leave Link  302 at Thu Oct 29 18:28:36 2009, MaxMem= 1258291200 cpu:       2.4
 (Enter /home/g09/l303.exe)
 DipDrv:  MaxL=1.
 Leave Link  303 at Thu Oct 29 18:28:36 2009, MaxMem= 1258291200 cpu:       0.7
 (Enter /home/g09/l401.exe)
 Initial guess read from the checkpoint file:  /home/benjfitz/c3h5o-int7-cis-cis-
 ts-int8_irc-f-ub3lyp-avdz-a2.chk
 B after Tr=    -1.672547   -0.049452   -2.875629
         Rot=    1.000000   -0.000345    0.000336   -0.000322 Ang=   0.07 deg.
 Guess basis will be translated and rotated to current coordinates.
 Initial guess <Sx>= 0.0000 <Sy>= 0.0000 <Sz>= 0.5000 <S**2>= 0.7587 S= 0.5044
 Leave Link  401 at Thu Oct 29 18:28:37 2009, MaxMem= 1258291200 cpu:       2.1
 (Enter /home/g09/l502.exe)
 UHF open shell SCF:
 Requested convergence on RMS density matrix=1.00D-08 within  64 cycles.
 Requested convergence on MAX density matrix=1.00D-06.
 Requested convergence on             energy=1.00D-06.
 No special actions if energy rises.
 Using DIIS extrapolation, IDIIS=  1040.
 Two-electron integral symmetry not used.
       212185 words used for storage of precomputed grid.
 Keep R1 and R2 ints in memory in canonical form, NReq=113891672.
 IEnd=      282846 IEndB=      282846 NGot=  1258291200 MDV=  1145980911
 LenX=  1145980911 LenY=  1145959445
 Symmetry not used in FoFDir.
 MinBra= 0 MaxBra= 2 Meth= 1.
 IRaf=       0 NMat=   1 IRICut=       1 DoRegI=T DoRafI=F ISym2E= 0 JSym2E=0.

 Cycle   1  Pass 1  IDiag  1:
 E= -192.406755683637    
 DIIS: error= 1.24D-03 at cycle   1 NSaved=   1.
 NSaved= 1 IEnMin= 1 EnMin= -192.406755683637     IErMin= 1 ErrMin= 1.24D-03
 ErrMax= 1.24D-03 EMaxC= 1.00D-01 BMatC= 1.56D-03 BMatP= 1.56D-03
 IDIUse=3 WtCom= 9.88D-01 WtEn= 1.24D-02
 Coeff-Com:  0.100D+01
 Coeff-En:   0.100D+01
 Coeff:      0.100D+01
 Gap=     0.163 Goal=   None    Shift=    0.000
 Gap=     0.202 Goal=   None    Shift=    0.000
 GapD=    0.163 DampG=1.000 DampE=1.000 DampFc=1.0000 IDamp=-1.
 RMSDP=7.16D-04 MaxDP=1.46D-02              OVMax= 3.09D-02

 Cycle   2  Pass 1  IDiag  1:
 E= -192.407750128035     Delta-E=       -0.000994444398 Rises=F Damp=F
 DIIS: error= 3.55D-04 at cycle   2 NSaved=   2.
 NSaved= 2 IEnMin= 2 EnMin= -192.407750128035     IErMin= 2 ErrMin= 3.55D-04
 ErrMax= 3.55D-04 EMaxC= 1.00D-01 BMatC= 1.24D-04 BMatP= 1.56D-03
 IDIUse=3 WtCom= 9.96D-01 WtEn= 3.55D-03
 Coeff-Com:  0.672D-02 0.993D+00
 Coeff-En:   0.000D+00 0.100D+01
 Coeff:      0.670D-02 0.993D+00
 Gap=     0.160 Goal=   None    Shift=    0.000
 Gap=     0.149 Goal=   None    Shift=    0.000
 RMSDP=2.20D-04 MaxDP=9.15D-03 DE=-9.94D-04 OVMax= 1.13D-02

 Cycle   3  Pass 1  IDiag  1:
 E= -192.407814181851     Delta-E=       -0.000064053816 Rises=F Damp=F
 DIIS: error= 3.44D-04 at cycle   3 NSaved=   3.
 NSaved= 3 IEnMin= 3 EnMin= -192.407814181851     IErMin= 3 ErrMin= 3.44D-04
 ErrMax= 3.44D-04 EMaxC= 1.00D-01 BMatC= 1.46D-04 BMatP= 1.24D-04
 IDIUse=3 WtCom= 3.50D-01 WtEn= 6.50D-01
 Coeff-Com: -0.543D-01 0.557D+00 0.497D+00
 Coeff-En:   0.000D+00 0.000D+00 0.100D+01
 Coeff:     -0.190D-01 0.195D+00 0.824D+00
 Gap=     0.160 Goal=   None    Shift=    0.000
 Gap=     0.149 Goal=   None    Shift=    0.000
 RMSDP=1.46D-04 MaxDP=6.42D-03 DE=-6.41D-05 OVMax= 1.05D-02

 Cycle   4  Pass 1  IDiag  1:
 E= -192.407803852944     Delta-E=        0.000010328906 Rises=F Damp=F
 DIIS: error= 4.55D-04 at cycle   4 NSaved=   4.
 NSaved= 4 IEnMin= 3 EnMin= -192.407814181851     IErMin= 3 ErrMin= 3.44D-04
 ErrMax= 4.55D-04 EMaxC= 1.00D-01 BMatC= 2.52D-04 BMatP= 1.24D-04
 IDIUse=3 WtCom= 3.19D-01 WtEn= 6.81D-01
 Coeff-Com: -0.215D-01 0.614D-02 0.586D+00 0.430D+00
 Coeff-En:   0.000D+00 0.000D+00 0.543D+00 0.457D+00
 Coeff:     -0.686D-02 0.196D-02 0.557D+00 0.448D+00
 Gap=     0.161 Goal=   None    Shift=    0.000
 Gap=     0.149 Goal=   None    Shift=    0.000
 RMSDP=8.98D-05 MaxDP=4.62D-03 DE= 1.03D-05 OVMax= 4.51D-03

 Cycle   5  Pass 1  IDiag  1:
 E= -192.407867999304     Delta-E=       -0.000064146360 Rises=F Damp=F
 DIIS: error= 1.04D-04 at cycle   5 NSaved=   5.
 NSaved= 5 IEnMin= 5 EnMin= -192.407867999304     IErMin= 5 ErrMin= 1.04D-04
 ErrMax= 1.04D-04 EMaxC= 1.00D-01 BMatC= 1.21D-05 BMatP= 1.24D-04
 IDIUse=3 WtCom= 9.99D-01 WtEn= 1.04D-03
 Coeff-Com:  0.604D-02-0.207D+00 0.234D+00 0.328D+00 0.639D+00
 Coeff-En:   0.000D+00 0.000D+00 0.000D+00 0.000D+00 0.100D+01
 Coeff:      0.603D-02-0.207D+00 0.234D+00 0.328D+00 0.640D+00
 Gap=     0.161 Goal=   None    Shift=    0.000
 Gap=     0.149 Goal=   None    Shift=    0.000
 RMSDP=4.13D-05 MaxDP=9.55D-04 DE=-6.41D-05 OVMax= 3.13D-03

 Cycle   6  Pass 1  IDiag  1:
 E= -192.407874146724     Delta-E=       -0.000006147420 Rises=F Damp=F
 DIIS: error= 3.83D-05 at cycle   6 NSaved=   6.
 NSaved= 6 IEnMin= 6 EnMin= -192.407874146724     IErMin= 6 ErrMin= 3.83D-05
 ErrMax= 3.83D-05 EMaxC= 1.00D-01 BMatC= 1.68D-06 BMatP= 1.21D-05
 IDIUse=1 WtCom= 1.00D+00 WtEn= 0.00D+00
 Coeff-Com:  0.736D-02-0.102D+00-0.309D-01 0.423D-01 0.331D+00 0.752D+00
 Coeff:      0.736D-02-0.102D+00-0.309D-01 0.423D-01 0.331D+00 0.752D+00
 Gap=     0.161 Goal=   None    Shift=    0.000
 Gap=     0.149 Goal=   None    Shift=    0.000
 RMSDP=1.72D-05 MaxDP=5.07D-04 DE=-6.15D-06 OVMax= 1.37D-03

 Cycle   7  Pass 1  IDiag  1:
 E= -192.407875312505     Delta-E=       -0.000001165781 Rises=F Damp=F
 DIIS: error= 1.89D-05 at cycle   7 NSaved=   7.
 NSaved= 7 IEnMin= 7 EnMin= -192.407875312505     IErMin= 7 ErrMin= 1.89D-05
 ErrMax= 1.89D-05 EMaxC= 1.00D-01 BMatC= 2.78D-07 BMatP= 1.68D-06
 IDIUse=1 WtCom= 1.00D+00 WtEn= 0.00D+00
 Coeff-Com:  0.119D-02 0.103D-01-0.570D-01-0.622D-01-0.195D-02 0.240D+00
 Coeff-Com:  0.870D+00
 Coeff:      0.119D-02 0.103D-01-0.570D-01-0.622D-01-0.195D-02 0.240D+00
 Coeff:      0.870D+00
 Gap=     0.161 Goal=   None    Shift=    0.000
 Gap=     0.149 Goal=   None    Shift=    0.000
 RMSDP=9.09D-06 MaxDP=4.29D-04 DE=-1.17D-06 OVMax= 7.43D-04

 Cycle   8  Pass 1  IDiag  1:
 E= -192.407875630633     Delta-E=       -0.000000318128 Rises=F Damp=F
 DIIS: error= 7.23D-06 at cycle   8 NSaved=   8.
 NSaved= 8 IEnMin= 8 EnMin= -192.407875630633     IErMin= 8 ErrMin= 7.23D-06
 ErrMax= 7.23D-06 EMaxC= 1.00D-01 BMatC= 7.09D-08 BMatP= 2.78D-07
 IDIUse=1 WtCom= 1.00D+00 WtEn= 0.00D+00
 Coeff-Com: -0.197D-02 0.376D-01-0.584D-02-0.363D-01-0.108D+00-0.158D+00
 Coeff-Com:  0.269D+00 0.100D+01
 Coeff:     -0.197D-02 0.376D-01-0.584D-02-0.363D-01-0.108D+00-0.158D+00
 Coeff:      0.269D+00 0.100D+01
 Gap=     0.161 Goal=   None    Shift=    0.000
 Gap=     0.149 Goal=   None    Shift=    0.000
 RMSDP=6.09D-06 MaxDP=1.65D-04 DE=-3.18D-07 OVMax= 5.71D-04

 Cycle   9  Pass 1  IDiag  1:
 E= -192.407875751754     Delta-E=       -0.000000121122 Rises=F Damp=F
 DIIS: error= 3.53D-06 at cycle   9 NSaved=   9.
 NSaved= 9 IEnMin= 9 EnMin= -192.407875751754     IErMin= 9 ErrMin= 3.53D-06
 ErrMax= 3.53D-06 EMaxC= 1.00D-01 BMatC= 1.62D-08 BMatP= 7.09D-08
 IDIUse=1 WtCom= 1.00D+00 WtEn= 0.00D+00
 Coeff-Com: -0.847D-03 0.975D-02 0.891D-02-0.500D-03-0.371D-01-0.933D-01
 Coeff-Com: -0.938D-01 0.328D+00 0.879D+00
 Coeff:     -0.847D-03 0.975D-02 0.891D-02-0.500D-03-0.371D-01-0.933D-01
 Coeff:     -0.938D-01 0.328D+00 0.879D+00
 Gap=     0.161 Goal=   None    Shift=    0.000
 Gap=     0.149 Goal=   None    Shift=    0.000
 RMSDP=2.86D-06 MaxDP=9.85D-05 DE=-1.21D-07 OVMax= 2.47D-04

 Cycle  10  Pass 1  IDiag  1:
 E= -192.407875776346     Delta-E=       -0.000000024592 Rises=F Damp=F
 DIIS: error= 2.42D-06 at cycle  10 NSaved=  10.
 NSaved=10 IEnMin=10 EnMin= -192.407875776346     IErMin=10 ErrMin= 2.42D-06
 ErrMax= 2.42D-06 EMaxC= 1.00D-01 BMatC= 7.27D-09 BMatP= 1.62D-08
 IDIUse=1 WtCom= 1.00D+00 WtEn= 0.00D+00
 Coeff-Com:  0.178D-03-0.654D-02 0.722D-02 0.113D-01 0.125D-01-0.405D-02
 Coeff-Com: -0.132D+00-0.125D+00 0.486D+00 0.751D+00
 Coeff:      0.178D-03-0.654D-02 0.722D-02 0.113D-01 0.125D-01-0.405D-02
 Coeff:     -0.132D+00-0.125D+00 0.486D+00 0.751D+00
 Gap=     0.161 Goal=   None    Shift=    0.000
 Gap=     0.149 Goal=   None    Shift=    0.000
 RMSDP=1.46D-06 MaxDP=4.68D-05 DE=-2.46D-08 OVMax= 1.26D-04

 Cycle  11  Pass 1  IDiag  1:
 E= -192.407875782441     Delta-E=       -0.000000006095 Rises=F Damp=F
 DIIS: error= 1.09D-06 at cycle  11 NSaved=  11.
 NSaved=11 IEnMin=11 EnMin= -192.407875782441     IErMin=11 ErrMin= 1.09D-06
 ErrMax= 1.09D-06 EMaxC= 1.00D-01 BMatC= 1.42D-09 BMatP= 7.27D-09
 IDIUse=1 WtCom= 1.00D+00 WtEn= 0.00D+00
 Coeff-Com:  0.304D-03-0.571D-02 0.701D-03 0.520D-02 0.159D-01 0.229D-01
 Coeff-Com: -0.384D-01-0.157D+00-0.413D-02 0.381D+00 0.779D+00
 Coeff:      0.304D-03-0.571D-02 0.701D-03 0.520D-02 0.159D-01 0.229D-01
 Coeff:     -0.384D-01-0.157D+00-0.413D-02 0.381D+00 0.779D+00
 Gap=     0.161 Goal=   None    Shift=    0.000
 Gap=     0.149 Goal=   None    Shift=    0.000
 RMSDP=6.55D-07 MaxDP=2.53D-05 DE=-6.09D-09 OVMax= 4.95D-05

 Cycle  12  Pass 1  IDiag  1:
 E= -192.407875783521     Delta-E=       -0.000000001080 Rises=F Damp=F
 DIIS: error= 2.56D-07 at cycle  12 NSaved=  12.
 NSaved=12 IEnMin=12 EnMin= -192.407875783521     IErMin=12 ErrMin= 2.56D-07
 ErrMax= 2.56D-07 EMaxC= 1.00D-01 BMatC= 8.03D-11 BMatP= 1.42D-09
 IDIUse=1 WtCom= 1.00D+00 WtEn= 0.00D+00
 Coeff-Com:  0.426D-04-0.259D-03-0.832D-03-0.329D-03 0.154D-02 0.586D-02
 Coeff-Com:  0.102D-01-0.165D-01-0.614D-01-0.212D-01 0.158D+00 0.924D+00
 Coeff:      0.426D-04-0.259D-03-0.832D-03-0.329D-03 0.154D-02 0.586D-02
 Coeff:      0.102D-01-0.165D-01-0.614D-01-0.212D-01 0.158D+00 0.924D+00
 Gap=     0.161 Goal=   None    Shift=    0.000
 Gap=     0.149 Goal=   None    Shift=    0.000
 RMSDP=1.31D-07 MaxDP=3.04D-06 DE=-1.08D-09 OVMax= 7.11D-06

 Cycle  13  Pass 1  IDiag  1:
 E= -192.407875783570     Delta-E=       -0.000000000050 Rises=F Damp=F
 DIIS: error= 8.26D-08 at cycle  13 NSaved=  13.
 NSaved=13 IEnMin=13 EnMin= -192.407875783570     IErMin=13 ErrMin= 8.26D-08
 ErrMax= 8.26D-08 EMaxC= 1.00D-01 BMatC= 6.71D-12 BMatP= 8.03D-11
 IDIUse=1 WtCom= 1.00D+00 WtEn= 0.00D+00
 Coeff-Com: -0.237D-04 0.583D-03-0.263D-03-0.631D-03-0.158D-02-0.116D-02
 Coeff-Com:  0.646D-02 0.133D-01-0.109D-01-0.464D-01-0.448D-01 0.183D+00
 Coeff-Com:  0.902D+00
 Coeff:     -0.237D-04 0.583D-03-0.263D-03-0.631D-03-0.158D-02-0.116D-02
 Coeff:      0.646D-02 0.133D-01-0.109D-01-0.464D-01-0.448D-01 0.183D+00
 Coeff:      0.902D+00
 Gap=     0.161 Goal=   None    Shift=    0.000
 Gap=     0.149 Goal=   None    Shift=    0.000
 RMSDP=3.19D-08 MaxDP=5.79D-07 DE=-4.96D-11 OVMax= 1.75D-06

 Cycle  14  Pass 1  IDiag  1:
 E= -192.407875783575     Delta-E=       -0.000000000004 Rises=F Damp=F
 DIIS: error= 2.11D-08 at cycle  14 NSaved=  14.
 NSaved=14 IEnMin=14 EnMin= -192.407875783575     IErMin=14 ErrMin= 2.11D-08
 ErrMax= 2.11D-08 EMaxC= 1.00D-01 BMatC= 4.39D-13 BMatP= 6.71D-12
 IDIUse=1 WtCom= 1.00D+00 WtEn= 0.00D+00
 Coeff-Com: -0.699D-05 0.116D-03 0.192D-04-0.775D-04-0.400D-03-0.557D-03
 Coeff-Com:  0.446D-03 0.340D-02 0.229D-02-0.722D-02-0.190D-01-0.303D-01
 Coeff-Com:  0.159D+00 0.892D+00
 Coeff:     -0.699D-05 0.116D-03 0.192D-04-0.775D-04-0.400D-03-0.557D-03
 Coeff:      0.446D-03 0.340D-02 0.229D-02-0.722D-02-0.190D-01-0.303D-01
 Coeff:      0.159D+00 0.892D+00
 Gap=     0.161 Goal=   None    Shift=    0.000
 Gap=     0.149 Goal=   None    Shift=    0.000
 RMSDP=8.85D-09 MaxDP=1.75D-07 DE=-4.32D-12 OVMax= 4.16D-07

 SCF Done:  E(UB3LYP) =  -192.407875784     A.U. after   14 cycles
             Convg  =    0.8855D-08             -V/T =  2.0066
 <Sx>= 0.0000 <Sy>= 0.0000 <Sz>= 0.5000 <S**2>= 0.7575 S= 0.5037
 <L.S>= 0.000000000000E+00
 KE= 1.911430488451D+02 PE=-6.676825803950D+02 EE= 1.745813764541D+02
 Annihilation of the first spin contaminant:
 S**2 before annihilation     0.7575,   after     0.7500
 Leave Link  502 at Thu Oct 29 18:29:11 2009, MaxMem= 1258291200 cpu:     274.3
 (Enter /home/g09/l508.exe)
 QCSCF skips out because SCF is already converged.
 Leave Link  508 at Thu Oct 29 18:29:11 2009, MaxMem= 1258291200 cpu:       0.0
 (Enter /home/g09/l801.exe)
 Range of M.O.s used for correlation:     1   137
 NBasis=   137 NAE=    16 NBE=    15 NFC=     0 NFV=     0
 NROrb=    137 NOA=    16 NOB=    15 NVA=   121 NVB=   122

 **** Warning!!: The largest alpha MO coefficient is  0.31222867D+02


 **** Warning!!: The largest beta MO coefficient is  0.31219146D+02

 Leave Link  801 at Thu Oct 29 18:29:11 2009, MaxMem= 1258291200 cpu:       0.3
 (Enter /home/g09/l1101.exe)
 Leave Link 1101 at Thu Oct 29 18:29:12 2009, MaxMem= 1258291200 cpu:       0.3
 (Enter /home/g09/l1102.exe)
 Symmetrizing basis deriv contribution to polar:
 IMax=3 JMax=2 DiffMx= 0.00D+00
 Leave Link 1102 at Thu Oct 29 18:29:12 2009, MaxMem= 1258291200 cpu:       0.7
 (Enter /home/g09/l1110.exe)
 Leave Link 1110 at Thu Oct 29 18:29:12 2009, MaxMem= 1258291200 cpu:       0.4
 (Enter /home/g09/l1002.exe)
 Minotr:  UHF open shell wavefunction.
 Leave Link 1002 at Thu Oct 29 18:29:12 2009, MaxMem= 1258291200 cpu:       0.4
 (Enter /home/g09/l601.exe)
 Copying SCF densities to generalized density rwf, IOpCl= 1 IROHF=0.

 **********************************************************************

            Population analysis using the SCF density.

 **********************************************************************

 Alpha  occ. eigenvalues --  -19.18712 -10.24902 -10.22743 -10.20376  -1.06610
 Alpha  occ. eigenvalues --   -0.82386  -0.70912  -0.59567  -0.52740  -0.48233
 Alpha  occ. eigenvalues --   -0.45035  -0.40119  -0.38957  -0.36511  -0.24712
 Alpha  occ. eigenvalues --   -0.18339
 Alpha virt. eigenvalues --   -0.02275   0.00199   0.00688   0.01235   0.02368
 Alpha virt. eigenvalues --    0.02856   0.05912   0.06773   0.07157   0.07814
 Alpha virt. eigenvalues --    0.08764   0.10011   0.10570   0.11235   0.11456
 Alpha virt. eigenvalues --    0.12164   0.12696   0.13585   0.17017   0.17618
 Alpha virt. eigenvalues --    0.18953   0.19767   0.20263   0.21576   0.23879
 Alpha virt. eigenvalues --    0.25378   0.26471   0.28258   0.28978   0.31404
 Alpha virt. eigenvalues --    0.32432   0.33930   0.34665   0.36080   0.36713
 Alpha virt. eigenvalues --    0.38098   0.40162   0.40998   0.42418   0.43117
 Alpha virt. eigenvalues --    0.44692   0.45721   0.47065   0.48086   0.50029
 Alpha virt. eigenvalues --    0.51638   0.52077   0.54131   0.55815   0.56861
 Alpha virt. eigenvalues --    0.58008   0.59347   0.60410   0.60943   0.61656
 Alpha virt. eigenvalues --    0.62807   0.66598   0.67569   0.70603   0.75741
 Alpha virt. eigenvalues --    0.78151   0.83479   0.85436   0.87338   0.88875
 Alpha virt. eigenvalues --    0.95528   0.97813   1.01311   1.01638   1.03102
 Alpha virt. eigenvalues --    1.08089   1.09730   1.14654   1.22295   1.27641
 Alpha virt. eigenvalues --    1.29511   1.34503   1.34922   1.38135   1.41163
 Alpha virt. eigenvalues --    1.42523   1.43948   1.44030   1.49907   1.53980
 Alpha virt. eigenvalues --    1.55205   1.58803   1.61051   1.64789   1.70736
 Alpha virt. eigenvalues --    1.74087   1.78024   1.80085   1.83952   1.84994
 Alpha virt. eigenvalues --    1.88800   1.94518   1.99163   1.99612   2.04104
 Alpha virt. eigenvalues --    2.08896   2.10256   2.13244   2.20153   2.28614
 Alpha virt. eigenvalues --    2.31274   2.33870   2.47733   2.51256   2.53101
 Alpha virt. eigenvalues --    2.62151   2.62479   2.66823   2.82518   2.99367
 Alpha virt. eigenvalues --    3.10763   3.33664   3.36132   3.41225   3.54366
 Alpha virt. eigenvalues --    3.90968
  Beta  occ. eigenvalues --  -19.18469 -10.24609 -10.22212 -10.19632  -1.06023
  Beta  occ. eigenvalues --   -0.80691  -0.69639  -0.58733  -0.51458  -0.47373
  Beta  occ. eigenvalues --   -0.44431  -0.39486  -0.37949  -0.34921  -0.22928
  Beta virt. eigenvalues --   -0.08067  -0.02120   0.00570   0.01264   0.01499
  Beta virt. eigenvalues --    0.02802   0.02932   0.06048   0.07114   0.07186
  Beta virt. eigenvalues --    0.08096   0.08918   0.10239   0.10757   0.11339
  Beta virt. eigenvalues --    0.11537   0.12468   0.12886   0.13792   0.17243
  Beta virt. eigenvalues --    0.17958   0.19127   0.19898   0.20722   0.22077
  Beta virt. eigenvalues --    0.24203   0.25497   0.26769   0.28672   0.29212
  Beta virt. eigenvalues --    0.31630   0.32615   0.34430   0.35032   0.36310
  Beta virt. eigenvalues --    0.37159   0.38239   0.40306   0.41611   0.42712
  Beta virt. eigenvalues --    0.43385   0.45252   0.46439   0.47407   0.48577
  Beta virt. eigenvalues --    0.50359   0.51812   0.52337   0.54650   0.56209
  Beta virt. eigenvalues --    0.57163   0.58426   0.59671   0.60832   0.61356
  Beta virt. eigenvalues --    0.62027   0.63102   0.67149   0.68200   0.70980
  Beta virt. eigenvalues --    0.76396   0.78494   0.83809   0.86156   0.87667
  Beta virt. eigenvalues --    0.89295   0.95986   0.98210   1.02153   1.02245
  Beta virt. eigenvalues --    1.03572   1.08227   1.10396   1.15558   1.22658
  Beta virt. eigenvalues --    1.28000   1.29880   1.35156   1.35584   1.39139
  Beta virt. eigenvalues --    1.41793   1.43283   1.44590   1.45125   1.50719
  Beta virt. eigenvalues --    1.54452   1.56214   1.59827   1.61905   1.65550
  Beta virt. eigenvalues --    1.71431   1.74672   1.78752   1.80828   1.84412
  Beta virt. eigenvalues --    1.85306   1.89315   1.95371   1.99603   1.99915
  Beta virt. eigenvalues --    2.04611   2.10129   2.10785   2.13464   2.20972
  Beta virt. eigenvalues --    2.29277   2.31802   2.34345   2.48311   2.52097
  Beta virt. eigenvalues --    2.53538   2.62518   2.62853   2.67284   2.83001
  Beta virt. eigenvalues --    3.00170   3.11266   3.34158   3.36662   3.41653
  Beta virt. eigenvalues --    3.54875   3.91201
          Condensed to atoms (all electrons):
              1          2          3          4          5          6
     1  C    5.460205  -0.204959  -0.486161  -0.033162   0.047907   0.237663
     2  C   -0.204959   6.950150  -0.334402  -0.052626  -0.177414  -0.132847
     3  C   -0.486161  -0.334402   6.063118   0.025447   0.004148  -0.146064
     4  O   -0.033162  -0.052626   0.025447   8.407198  -0.218418   0.009423
     5  H    0.047907  -0.177414   0.004148  -0.218418   1.756963   0.007044
     6  H    0.237663  -0.132847  -0.146064   0.009423   0.007044   2.032171
     7  H    0.438408   0.009392  -0.161331   0.008446  -0.006066  -0.075963
     8  H   -0.078362  -0.040754   0.133213   0.002688   0.002352  -0.450525
     9  H    0.030164   0.002844  -0.142541   0.274705   0.056271   0.000183
              7          8          9
     1  C    0.438408  -0.078362   0.030164
     2  C    0.009392  -0.040754   0.002844
     3  C   -0.161331   0.133213  -0.142541
     4  O    0.008446   0.002688   0.274705
     5  H   -0.006066   0.002352   0.056271
     6  H   -0.075963  -0.450525   0.000183
     7  H    0.760287   0.030977   0.002004
     8  H    0.030977   1.707798   0.006281
     9  H    0.002004   0.006281   0.686178
 Mulliken atomic charges:
              1
     1  C    0.588297
     2  C   -0.019383
     3  C    1.044572
     4  O   -0.423701
     5  H   -0.472787
     6  H   -0.481085
     7  H   -0.006154
     8  H   -0.313669
     9  H    0.083911
 Sum of Mulliken atomic charges =   0.00000
 Mulliken charges with hydrogens summed into heavy atoms:
              1
     1  C   -0.212610
     2  C   -0.019383
     3  C    0.571785
     4  O   -0.339791
 Sum of Mulliken charges with hydrogens summed into heavy atoms =   0.00000
          Atomic-Atomic Spin Densities.
              1          2          3          4          5          6
     1  C    0.582665  -0.294556   0.008840  -0.003571  -0.000406  -0.034891
     2  C   -0.294556   0.862848  -0.025622   0.001169  -0.011553   0.034854
     3  C    0.008840  -0.025622   0.171591  -0.048345   0.033917   0.002338
     4  O   -0.003571   0.001169  -0.048345   0.120481  -0.003537   0.001168
     5  H   -0.000406  -0.011553   0.033917  -0.003537  -0.026337   0.000053
     6  H   -0.034891   0.034854   0.002338   0.001168   0.000053  -0.000188
     7  H    0.077831  -0.041793   0.014320  -0.001794   0.002895  -0.008881
     8  H    0.028949   0.001337  -0.003989   0.000097  -0.000341   0.011672
     9  H    0.000479  -0.000208  -0.000994  -0.000352   0.000206  -0.000059
              7          8          9
     1  C    0.077831   0.028949   0.000479
     2  C   -0.041793   0.001337  -0.000208
     3  C    0.014320  -0.003989  -0.000994
     4  O   -0.001794   0.000097  -0.000352
     5  H    0.002895  -0.000341   0.000206
     6  H   -0.008881   0.011672  -0.000059
     7  H   -0.126911  -0.001134   0.000285
     8  H   -0.001134  -0.057615  -0.000182
     9  H    0.000285  -0.000182  -0.002942
 Mulliken atomic spin densities:
              1
     1  C    0.365341
     2  C    0.526476
     3  C    0.152056
     4  O    0.065317
     5  H   -0.005102
     6  H    0.006066
     7  H   -0.085181
     8  H   -0.021205
     9  H   -0.003767
 Sum of Mulliken atomic spin densities =   1.00000
 Electronic spatial extent (au):  <R**2>=            309.6123
 Charge=              0.0000 electrons
 Dipole moment (field-independent basis, Debye):
    X=              0.0773    Y=             -0.3233    Z=             -1.8715  Tot=              1.9008
 Quadrupole moment (field-independent basis, Debye-Ang):
   XX=            -26.3187   YY=            -26.0195   ZZ=            -24.0240
   XY=              1.6624   XZ=             -1.4484   YZ=             -1.2745
 Traceless Quadrupole moment (field-independent basis, Debye-Ang):
   XX=             -0.8646   YY=             -0.5655   ZZ=              1.4301
   XY=              1.6624   XZ=             -1.4484   YZ=             -1.2745
 Octapole moment (field-independent basis, Debye-Ang**2):
  XXX=             12.1151  YYY=              1.3171  ZZZ=              8.3314  XYY=              3.9965
  XXY=              1.3361  XXZ=             -4.9629  XZZ=             -0.6186  YZZ=             -0.7243
  YYZ=              2.1481  XYZ=              1.0492
 Hexadecapole moment (field-independent basis, Debye-Ang**3):
 XXXX=           -165.6872 YYYY=            -40.5066 ZZZZ=           -215.0146 XXXY=              1.8607
 XXXZ=            -52.1083 YYYX=             -3.1893 YYYZ=              2.5632 ZZZX=            -52.8507
 ZZZY=             -3.5094 XXYY=            -33.0037 XXZZ=            -67.0440 YYZZ=            -43.6629
 XXYZ=             -1.6104 YYXZ=            -16.3335 ZZXY=             -5.3616
 N-N= 1.095502793123D+02 E-N=-9.955974436857D+02  KE= 2.858938264495D+02
  Exact polarizability:   0.000   0.000   0.000   0.000   0.000   0.000
 Approx polarizability:  78.087  -0.858  51.127  16.676  -6.445  94.159
                          Isotropic Fermi Contact Couplings
        Atom                 a.u.       MegaHertz       Gauss      10(-4) cm-1
     1  C(13)              0.08085      90.89634      32.43407      30.31976
     2  C(13)              0.18512     208.10767      74.25799      69.41725
     3  C(13)              0.05968      67.09405      23.94082      22.38017
     4  O(17)              0.03737     -22.65538      -8.08400      -7.55702
     5  H(1)               0.00108       4.82284       1.72091       1.60873
     6  H(1)               0.00352      15.72350       5.61054       5.24480
     7  H(1)              -0.02086     -93.26343     -33.27871     -31.10933
     8  H(1)              -0.00625     -27.92884      -9.96571      -9.31606
     9  H(1)              -0.00126      -5.64830      -2.01545      -1.88407
 --------------------------------------------------------
       Center         ----  Spin Dipole Couplings  ----
                      3XX-RR        3YY-RR        3ZZ-RR
 --------------------------------------------------------
     1   Atom        0.043613      0.127079     -0.170692
     2   Atom        0.436480     -0.193797     -0.242682
     3   Atom       -0.092306      0.183616     -0.091310
     4   Atom        0.158706      0.016175     -0.174882
     5   Atom       -0.016235      0.002333      0.013901
     6   Atom        0.007190      0.002709     -0.009899
     7   Atom       -0.030748     -0.039094      0.069842
     8   Atom       -0.004323      0.010567     -0.006243
     9   Atom        0.005169     -0.012207      0.007038
 --------------------------------------------------------
                        XY            XZ            YZ
 --------------------------------------------------------
     1   Atom        0.287852     -0.060145     -0.073380
     2   Atom        0.299724     -0.105394     -0.075431
     3   Atom       -0.091679      0.006824      0.018414
     4   Atom       -0.259297     -0.024519      0.017170
     5   Atom        0.003512      0.002052     -0.016122
     6   Atom       -0.008841     -0.021529      0.010531
     7   Atom        0.032021     -0.019533      0.013107
     8   Atom       -0.007217      0.013659     -0.023245
     9   Atom        0.002754     -0.008080     -0.007444
 --------------------------------------------------------


 ---------------------------------------------------------------------------------
              Anisotropic Spin Dipole Couplings in Principal Axis System
 ---------------------------------------------------------------------------------

       Atom             a.u.   MegaHertz   Gauss  10(-4) cm-1        Axes

              Baa    -0.2058   -27.622    -9.856    -9.214  0.7361 -0.6647 -0.1280
     1 C(13)  Bbb    -0.1863   -25.006    -8.923    -8.341  0.2060  0.0398  0.9778
              Bcc     0.3922    52.628    18.779    17.555  0.6448  0.7461 -0.1662
 
              Baa    -0.3278   -43.989   -15.696   -14.673 -0.2813  0.8641  0.4174
     2 C(13)  Bbb    -0.2478   -33.256   -11.867   -11.093  0.2867 -0.3394  0.8959
              Bcc     0.5756    77.245    27.563    25.766  0.9158  0.3717 -0.1522
 
              Baa    -0.1243   -16.685    -5.954    -5.566  0.8939  0.2867 -0.3445
     3 C(13)  Bbb    -0.0878   -11.778    -4.203    -3.929  0.3443  0.0527  0.9374
              Bcc     0.2121    28.463    10.156     9.494 -0.2869  0.9566  0.0516
 
              Baa    -0.1818    13.151     4.693     4.387  0.6005  0.7670  0.2261
     4 O(17)  Bbb    -0.1763    12.755     4.551     4.255 -0.0938 -0.2132  0.9725
              Bcc     0.3580   -25.907    -9.244    -8.642  0.7941 -0.6052 -0.0560
 
              Baa    -0.0181    -9.633    -3.437    -3.213  0.9125 -0.3386 -0.2294
     5 H(1)   Bbb    -0.0072    -3.839    -1.370    -1.280  0.4090  0.7438  0.5287
              Bcc     0.0252    13.471     4.807     4.494 -0.0084 -0.5763  0.8172
 
              Baa    -0.0251   -13.392    -4.779    -4.467  0.5187 -0.1536  0.8410
     6 H(1)   Bbb    -0.0035    -1.883    -0.672    -0.628  0.4660  0.8755 -0.1275
              Bcc     0.0286    15.276     5.451     5.095  0.7168 -0.4581 -0.5257
 
              Baa    -0.0709   -37.829   -13.498   -12.618 -0.6619  0.7323 -0.1601
     7 H(1)   Bbb    -0.0031    -1.642    -0.586    -0.548  0.7317  0.6776  0.0742
              Bcc     0.0740    39.471    14.084    13.166 -0.1628  0.0680  0.9843
 
              Baa    -0.0254   -13.548    -4.834    -4.519 -0.3721  0.4501  0.8118
     8 H(1)   Bbb    -0.0068    -3.628    -1.295    -1.210  0.8556  0.5054  0.1120
              Bcc     0.0322    17.176     6.129     5.729 -0.3599  0.7362 -0.5731
 
              Baa    -0.0148    -7.870    -2.808    -2.625  0.0004  0.9463  0.3234
     9 H(1)   Bbb    -0.0014    -0.769    -0.274    -0.257  0.7906 -0.1983  0.5793
              Bcc     0.0162     8.639     3.083     2.882 -0.6123 -0.2555  0.7482
 

 ---------------------------------------------------------------------------------

 No NMR shielding tensors so no spin-rotation constants.
 Leave Link  601 at Thu Oct 29 18:29:12 2009, MaxMem= 1258291200 cpu:       2.8
 (Enter /home/g09/l701.exe)
 Compute integral first derivatives.
 ... and contract with generalized density number  0.
 Leave Link  701 at Thu Oct 29 18:29:13 2009, MaxMem= 1258291200 cpu:       1.9
 (Enter /home/g09/l702.exe)
 L702 exits ... SP integral derivatives will be done elsewhere.
 Leave Link  702 at Thu Oct 29 18:29:13 2009, MaxMem= 1258291200 cpu:       0.3
 (Enter /home/g09/l703.exe)
 Compute integral first derivatives, UseDBF=F ICtDFT=           0.
 Integral derivatives from FoFDir, PRISM(SPDF).
 Calling FoFJK, ICntrl=      2127 FMM=F ISym2X=0 I1Cent= 0 IOpClX= 1 NMat=1 NMatS=1 NMatT=0.
 FoFCou: FMM=F IPFlag=           0 FMFlag=      100000 FMFlg1=         800
         NFxFlg=           0 DoJE=F BraDBF=F KetDBF=F FulRan=T
         Omega=  0.000000  0.000000  1.000000  0.000000  0.000000 ICntrl=    2127 IOpCl=  1
         NMat0=    1 NMatS0=    1 NMatT0=    0 NMatD0=    1 NMtDS0=    0 NMtDT0=    0
         I1Cent=           0 NGrid=           0.
 Symmetry not used in FoFCou.
 Leave Link  703 at Thu Oct 29 18:29:18 2009, MaxMem= 1258291200 cpu:      44.4
 (Enter /home/g09/l716.exe)
 Dipole        = 3.04283409D-02-1.27201024D-01-7.36303979D-01
 Polarizability= 0.00000000D+00 0.00000000D+00 0.00000000D+00
                 0.00000000D+00 0.00000000D+00 0.00000000D+00
 -------------------------------------------------------------------
 Center     Atomic                   Forces (Hartrees/Bohr)
 Number     Number              X              Y              Z
 -------------------------------------------------------------------
      1        6          -0.008922776   -0.005877994    0.003699120
      2        6           0.005102863    0.006702543    0.006844438
      3        6          -0.000543148    0.000657216    0.000448403
      4        8           0.001437056   -0.000510172    0.000124354
      5        1          -0.000024266    0.000132269    0.000105850
      6        1          -0.000467822   -0.000307396    0.000487881
      7        1           0.002303925   -0.002094351   -0.011939700
      8        1           0.001083600    0.001265220    0.000189197
      9        1           0.000030569    0.000032665    0.000040457
 -------------------------------------------------------------------
 Cartesian Forces:  Max     0.011939700 RMS     0.003870949
 Leave Link  716 at Thu Oct 29 18:29:19 2009, MaxMem= 1258291200 cpu:       0.3
 (Enter /home/g09/l123.exe)
 IRC-IRC-IRC-IRC-IRC-IRC-IRC-IRC-IRC-IRC-IRC-IRC-IRC-IRC-IRC-IRC-IRC-IRC
 Pt  1 Step number   1 out of a maximum of  25
 Using modified Bulirsch-Stoer corrector interation.
   Using distance weighted interpolants to fit PES.
    Cycle     1 NS=     2
    Cycle     2 NS=     4 Truncation Error =  0.011923773
    Cycle     3 NS=     6 Truncation Error =  0.000008434
    Cycle     4 NS=     8 Truncation Error =  0.000001530
    Cycle     5 NS=    12 Truncation Error =  0.000000156
 BS completed in    5 cycles and      32 integration steps.
 SUMMARY OF CORRECTOR INTEGRATION:
   Original End Point Energy  =  -192.407876
   Corrected End Point Energy =  -192.407876
   Old End-Start Dist.        =     0.106167
   New End-Start Dist.        =     0.106160
   New End-Old End Dist.      =     0.001147
 CORRECTOR INTEGRATION CONVERGENCE:
   Recorrection delta-x convergence threshold:    0.010000
   Delta-x Convergence Met
 Point Number:   1          Path Number:   1
                    CURRENT STRUCTURE
                Cartesian Coordinates (Ang):                
 ---------------------------------------------------------------------
 Center     Atomic                     Coordinates (Angstroms)
 Number     Number                        X           Y           Z
 ---------------------------------------------------------------------
      1          6                   -0.753896    0.031849   -1.593228
      2          6                   -0.855234    0.045070   -0.158542
      3          6                   -0.017517   -0.189380    0.863390
      4          8                    1.327286    0.120572    0.882085
      5          1                   -0.334030   -0.585325    1.826892
      6          1                    0.066177   -0.465257   -2.129734
      7          1                   -1.614025   -0.700458   -0.963908
      8          1                   -1.396675    0.692522   -2.177403
      9          1                    1.581762    0.484007    0.022620
 ---------------------------------------------------------------------
   CHANGE IN THE REACTION COORDINATE =    0.10616
   NET REACTION COORDINATE UP TO THIS POINT =    0.10616
  # OF POINTS ALONG THE PATH =   1
  # OF STEPS =   1

 Calculating another point on the path.
 Point Number  2 in FORWARD path direction.
 Using LQA Reaction Path Following.
   LQA: T_Est iteration completed in    3 iterations.
 IRC-IRC-IRC-IRC-IRC-IRC-IRC-IRC-IRC-IRC-IRC-IRC-IRC-IRC-IRC-IRC-IRC-IRC
 Leave Link  123 at Thu Oct 29 18:29:19 2009, MaxMem= 1258291200 cpu:       0.1
 (Enter /home/g09/l202.exe)
                          Input orientation:                          
 ---------------------------------------------------------------------
 Center     Atomic      Atomic             Coordinates (Angstroms)
 Number     Number       Type             X           Y           Z
 ---------------------------------------------------------------------
      1          6           0       -0.757077    0.029755   -1.591880
      2          6           0       -0.853468    0.047420   -0.156168
      3          6           0       -0.017704   -0.189152    0.863564
      4          8           0        1.327672    0.120438    0.882116
      5          1           0       -0.334118   -0.584750    1.827326
      6          1           0        0.064295   -0.466673   -2.127776
      7          1           0       -1.603703   -0.708763   -1.014169
      8          1           0       -1.392203    0.697907   -2.176638
      9          1           0        1.581889    0.484129    0.022829
 ---------------------------------------------------------------------
                    Distance matrix (angstroms):
                    1          2          3          4          5
     1  C    0.000000
     2  C    1.439053   0.000000
     3  C    2.573675   1.339523   0.000000
     4  O    3.236519   2.416762   1.380662   0.000000
     5  H    3.499640   2.145602   1.088784   2.037709   0.000000
     6  H    1.099217   2.234686   3.005305   3.316665   3.976871
     7  H    1.263304   1.367783   2.512225   3.588375   3.114694
     8  H    1.091674   2.189902   3.452384   4.133663   4.335491
     9  H    2.878281   2.480669   1.928429   0.967094   2.840738
                    6          7          8          9
     6  H    0.000000
     7  H    2.020136   0.000000
     8  H    1.865481   1.837060   0.000000
     9  H    2.798610   3.556171   3.705210   0.000000
 Symmetry turned off by external request.
 Stoichiometry    C3H5O(2)
 Framework group  C1[X(C3H5O)]
 Deg. of freedom    21
 Full point group                 C1      NOp   1
 Rotational constants (GHZ):     23.3764194      5.0773312      4.3006222
 Leave Link  202 at Thu Oct 29 18:29:19 2009, MaxMem= 1258291200 cpu:       0.0
 (Enter /home/g09/l301.exe)
 Standard basis: Aug-CC-pVDZ (5D, 7F)
 Ernie: Thresh=  0.10000D-02 Tol=  0.10000D-05 Strict=F.
 Ernie:  8 primitive shells out of 135 were deleted.
 Integral buffers will be    131072 words long.
 Raffenetti 2 integral format.
 Two-electron integral symmetry is turned off.
   137 basis functions,   227 primitive gaussians,   145 cartesian basis functions
    16 alpha electrons       15 beta electrons
       nuclear repulsion energy       109.5533769131 Hartrees.
 IExCor=  402 DFT=T Ex+Corr=B3LYP ExCW=0 ScaHFX=  0.200000
 ScaDFX=  0.800000  0.720000  1.000000  0.810000 ScalE2=  1.000000  1.000000
 IRadAn=      5 IRanWt=     -1 IRanGd=            0 ICorTp=0
 NAtoms=    9 NActive=    9 NUniq=    9 SFac= 7.50D-01 NAtFMM=   80 NAOKFM=F Big=F
 Leave Link  301 at Thu Oct 29 18:29:19 2009, MaxMem= 1258291200 cpu:       0.6
 (Enter /home/g09/l302.exe)
 NPDir=0 NMtPBC=     1 NCelOv=     1 NCel=       1 NClECP=     1 NCelD=      1
         NCelK=      1 NCelE2=     1 NClLst=     1 CellRange=     0.0.
 One-electron integrals computed using PRISM.
 NBasis=   137 RedAO= T  NBF=   137
 NBsUse=   137 1.00D-06 NBFU=   137
 Precomputing XC quadrature grid using
 IXCGrd= 2 IRadAn=           5 IRanWt=          -1 IRanGd=           0 AccXCQ= 1.00D-10.
 NRdTot=     769 NPtTot=      206766 NUsed=      212279 NTot=      212311
 NSgBfM=   145   145   145   145   145 NAtAll=     9     9.
 Leave Link  302 at Thu Oct 29 18:29:19 2009, MaxMem= 1258291200 cpu:       2.2
 (Enter /home/g09/l303.exe)
 DipDrv:  MaxL=1.
 Leave Link  303 at Thu Oct 29 18:29:19 2009, MaxMem= 1258291200 cpu:       0.4
 (Enter /home/g09/l401.exe)
 Initial guess read from the read-write file.
 B after Tr=     0.000000    0.000000    0.000000
         Rot=    1.000000    0.000000    0.000000    0.000000 Ang=   0.00 deg.
 Guess basis will be translated and rotated to current coordinates.
 Initial guess <Sx>= 0.0000 <Sy>= 0.0000 <Sz>= 0.5000 <S**2>= 0.7575 S= 0.5037
 Generating alternative initial guess.
 Harris functional with IExCor=  402 diagonalized for initial guess.
 ExpMin= 2.97D-02 ExpMax= 1.17D+04 ExpMxC= 4.01D+02 IAcc=3 IRadAn=         5 AccDes= 0.00D+00
 HarFok:  IExCor=  402 AccDes= 0.00D+00 IRadAn=         5 IDoV= 1
 ScaDFX=  1.000000  1.000000  1.000000  1.000000
 FoFCou: FMM=F IPFlag=           0 FMFlag=      100000 FMFlg1=           0
         NFxFlg=           0 DoJE=T BraDBF=F KetDBF=T FulRan=T
         Omega=  0.000000  0.000000  1.000000  0.000000  0.000000 ICntrl=     500 IOpCl=  0
         NMat0=    1 NMatS0=    1 NMatT0=    0 NMatD0=    1 NMtDS0=    0 NMtDT0=    0
         I1Cent=           4 NGrid=           0.
 Symmetry not used in FoFCou.
 Harris En= -192.431791420302    
 Leave Link  401 at Thu Oct 29 18:29:20 2009, MaxMem= 1258291200 cpu:       9.4
 (Enter /home/g09/l502.exe)
 UHF open shell SCF:
 Requested convergence on RMS density matrix=1.00D-08 within  64 cycles.
 Requested convergence on MAX density matrix=1.00D-06.
 Requested convergence on             energy=1.00D-06.
 No special actions if energy rises.
 Using DIIS extrapolation, IDIIS=  1040.
 Two-electron integral symmetry not used.
       212185 words used for storage of precomputed grid.
 Keep R1 and R2 ints in memory in canonical form, NReq=113891672.
 IEnd=      282846 IEndB=      282846 NGot=  1258291200 MDV=  1145980911
 LenX=  1145980911 LenY=  1145959445
 Symmetry not used in FoFDir.
 MinBra= 0 MaxBra= 2 Meth= 1.
 IRaf=       0 NMat=   1 IRICut=       1 DoRegI=T DoRafI=F ISym2E= 0 JSym2E=0.

 Cycle   1  Pass 1  IDiag  1:
 E= -192.408856583384    
 DIIS: error= 1.35D-03 at cycle   1 NSaved=   1.
 NSaved= 1 IEnMin= 1 EnMin= -192.408856583384     IErMin= 1 ErrMin= 1.35D-03
 ErrMax= 1.35D-03 EMaxC= 1.00D-01 BMatC= 1.51D-03 BMatP= 1.51D-03
 IDIUse=3 WtCom= 9.87D-01 WtEn= 1.35D-02
 Coeff-Com:  0.100D+01
 Coeff-En:   0.100D+01
 Coeff:      0.100D+01
 Gap=     0.165 Goal=   None    Shift=    0.000
 Gap=     0.202 Goal=   None    Shift=    0.000
 GapD=    0.165 DampG=1.000 DampE=1.000 DampFc=1.0000 IDamp=-1.
 RMSDP=7.17D-04 MaxDP=1.45D-02              OVMax= 2.90D-02

 Cycle   2  Pass 1  IDiag  1:
 E= -192.409790285540     Delta-E=       -0.000933702156 Rises=F Damp=F
 DIIS: error= 3.28D-04 at cycle   2 NSaved=   2.
 NSaved= 2 IEnMin= 2 EnMin= -192.409790285540     IErMin= 2 ErrMin= 3.28D-04
 ErrMax= 3.28D-04 EMaxC= 1.00D-01 BMatC= 1.22D-04 BMatP= 1.51D-03
 IDIUse=3 WtCom= 9.97D-01 WtEn= 3.28D-03
 Coeff-Com:  0.158D-01 0.984D+00
 Coeff-En:   0.000D+00 0.100D+01
 Coeff:      0.157D-01 0.984D+00
 Gap=     0.163 Goal=   None    Shift=    0.000
 Gap=     0.148 Goal=   None    Shift=    0.000
 RMSDP=2.09D-04 MaxDP=8.31D-03 DE=-9.34D-04 OVMax= 1.05D-02

 Cycle   3  Pass 1  IDiag  1:
 E= -192.409847598218     Delta-E=       -0.000057312678 Rises=F Damp=F
 DIIS: error= 3.44D-04 at cycle   3 NSaved=   3.
 NSaved= 3 IEnMin= 3 EnMin= -192.409847598218     IErMin= 2 ErrMin= 3.28D-04
 ErrMax= 3.44D-04 EMaxC= 1.00D-01 BMatC= 1.29D-04 BMatP= 1.22D-04
 IDIUse=3 WtCom= 9.97D-01 WtEn= 3.44D-03
 Coeff-Com: -0.508D-01 0.536D+00 0.515D+00
 Coeff-En:   0.000D+00 0.000D+00 0.100D+01
 Coeff:     -0.506D-01 0.534D+00 0.516D+00
 Gap=     0.163 Goal=   None    Shift=    0.000
 Gap=     0.148 Goal=   None    Shift=    0.000
 RMSDP=8.08D-05 MaxDP=3.48D-03 DE=-5.73D-05 OVMax= 6.00D-03

 Cycle   4  Pass 1  IDiag  1:
 E= -192.409886178367     Delta-E=       -0.000038580148 Rises=F Damp=F
 DIIS: error= 1.44D-04 at cycle   4 NSaved=   4.
 NSaved= 4 IEnMin= 4 EnMin= -192.409886178367     IErMin= 4 ErrMin= 1.44D-04
 ErrMax= 1.44D-04 EMaxC= 1.00D-01 BMatC= 2.23D-05 BMatP= 1.22D-04
 IDIUse=3 WtCom= 9.99D-01 WtEn= 1.44D-03
 Coeff-Com: -0.212D-01 0.554D-01 0.275D+00 0.691D+00
 Coeff-En:   0.000D+00 0.000D+00 0.000D+00 0.100D+01
 Coeff:     -0.211D-01 0.553D-01 0.275D+00 0.691D+00
 Gap=     0.163 Goal=   None    Shift=    0.000
 Gap=     0.148 Goal=   None    Shift=    0.000
 RMSDP=4.60D-05 MaxDP=2.70D-03 DE=-3.86D-05 OVMax= 2.44D-03

 Cycle   5  Pass 1  IDiag  1:
 E= -192.409895838650     Delta-E=       -0.000009660283 Rises=F Damp=F
 DIIS: error= 8.88D-05 at cycle   5 NSaved=   5.
 NSaved= 5 IEnMin= 5 EnMin= -192.409895838650     IErMin= 5 ErrMin= 8.88D-05
 ErrMax= 8.88D-05 EMaxC= 1.00D-01 BMatC= 8.09D-06 BMatP= 2.23D-05
 IDIUse=1 WtCom= 1.00D+00 WtEn= 0.00D+00
 Coeff-Com:  0.481D-02-0.158D+00 0.239D-01 0.465D+00 0.665D+00
 Coeff:      0.481D-02-0.158D+00 0.239D-01 0.465D+00 0.665D+00
 Gap=     0.163 Goal=   None    Shift=    0.000
 Gap=     0.148 Goal=   None    Shift=    0.000
 RMSDP=3.51D-05 MaxDP=8.60D-04 DE=-9.66D-06 OVMax= 2.87D-03

 Cycle   6  Pass 1  IDiag  1:
 E= -192.409900485550     Delta-E=       -0.000004646900 Rises=F Damp=F
 DIIS: error= 3.69D-05 at cycle   6 NSaved=   6.
 NSaved= 6 IEnMin= 6 EnMin= -192.409900485550     IErMin= 6 ErrMin= 3.69D-05
 ErrMax= 3.69D-05 EMaxC= 1.00D-01 BMatC= 1.81D-06 BMatP= 8.09D-06
 IDIUse=1 WtCom= 1.00D+00 WtEn= 0.00D+00
 Coeff-Com:  0.767D-02-0.100D+00-0.537D-01 0.373D-01 0.371D+00 0.738D+00
 Coeff:      0.767D-02-0.100D+00-0.537D-01 0.373D-01 0.371D+00 0.738D+00
 Gap=     0.163 Goal=   None    Shift=    0.000
 Gap=     0.148 Goal=   None    Shift=    0.000
 RMSDP=1.74D-05 MaxDP=5.30D-04 DE=-4.65D-06 OVMax= 1.45D-03

 Cycle   7  Pass 1  IDiag  1:
 E= -192.409901745079     Delta-E=       -0.000001259530 Rises=F Damp=F
 DIIS: error= 1.82D-05 at cycle   7 NSaved=   7.
 NSaved= 7 IEnMin= 7 EnMin= -192.409901745079     IErMin= 7 ErrMin= 1.82D-05
 ErrMax= 1.82D-05 EMaxC= 1.00D-01 BMatC= 2.75D-07 BMatP= 1.81D-06
 IDIUse=1 WtCom= 1.00D+00 WtEn= 0.00D+00
 Coeff-Com:  0.138D-02 0.359D-02-0.139D-01-0.109D+00 0.321D-03 0.216D+00
 Coeff-Com:  0.901D+00
 Coeff:      0.138D-02 0.359D-02-0.139D-01-0.109D+00 0.321D-03 0.216D+00
 Coeff:      0.901D+00
 Gap=     0.163 Goal=   None    Shift=    0.000
 Gap=     0.148 Goal=   None    Shift=    0.000
 RMSDP=9.80D-06 MaxDP=4.38D-04 DE=-1.26D-06 OVMax= 8.28D-04

 Cycle   8  Pass 1  IDiag  1:
 E= -192.409902088887     Delta-E=       -0.000000343808 Rises=F Damp=F
 DIIS: error= 7.13D-06 at cycle   8 NSaved=   8.
 NSaved= 8 IEnMin= 8 EnMin= -192.409902088887     IErMin= 8 ErrMin= 7.13D-06
 ErrMax= 7.13D-06 EMaxC= 1.00D-01 BMatC= 7.39D-08 BMatP= 2.75D-07
 IDIUse=1 WtCom= 1.00D+00 WtEn= 0.00D+00
 Coeff-Com: -0.191D-02 0.339D-01 0.166D-01-0.535D-01-0.113D+00-0.154D+00
 Coeff-Com:  0.300D+00 0.972D+00
 Coeff:     -0.191D-02 0.339D-01 0.166D-01-0.535D-01-0.113D+00-0.154D+00
 Coeff:      0.300D+00 0.972D+00
 Gap=     0.163 Goal=   None    Shift=    0.000
 Gap=     0.148 Goal=   None    Shift=    0.000
 RMSDP=6.09D-06 MaxDP=1.69D-04 DE=-3.44D-07 OVMax= 5.74D-04

 Cycle   9  Pass 1  IDiag  1:
 E= -192.409902207804     Delta-E=       -0.000000118917 Rises=F Damp=F
 DIIS: error= 3.92D-06 at cycle   9 NSaved=   9.
 NSaved= 9 IEnMin= 9 EnMin= -192.409902207804     IErMin= 9 ErrMin= 3.92D-06
 ErrMax= 3.92D-06 EMaxC= 1.00D-01 BMatC= 1.95D-08 BMatP= 7.39D-08
 IDIUse=1 WtCom= 1.00D+00 WtEn= 0.00D+00
 Coeff-Com: -0.101D-02 0.119D-01 0.983D-02 0.126D-02-0.457D-01-0.103D+00
 Coeff-Com: -0.824D-01 0.388D+00 0.821D+00
 Coeff:     -0.101D-02 0.119D-01 0.983D-02 0.126D-02-0.457D-01-0.103D+00
 Coeff:     -0.824D-01 0.388D+00 0.821D+00
 Gap=     0.163 Goal=   None    Shift=    0.000
 Gap=     0.148 Goal=   None    Shift=    0.000
 RMSDP=2.83D-06 MaxDP=9.69D-05 DE=-1.19D-07 OVMax= 2.36D-04

 Cycle  10  Pass 1  IDiag  1:
 E= -192.409902232594     Delta-E=       -0.000000024790 Rises=F Damp=F
 DIIS: error= 2.48D-06 at cycle  10 NSaved=  10.
 NSaved=10 IEnMin=10 EnMin= -192.409902232594     IErMin=10 ErrMin= 2.48D-06
 ErrMax= 2.48D-06 EMaxC= 1.00D-01 BMatC= 7.24D-09 BMatP= 1.95D-08
 IDIUse=1 WtCom= 1.00D+00 WtEn= 0.00D+00
 Coeff-Com:  0.123D-03-0.501D-02 0.897D-05 0.182D-01 0.115D-01-0.545D-02
 Coeff-Com: -0.135D+00-0.103D+00 0.438D+00 0.781D+00
 Coeff:      0.123D-03-0.501D-02 0.897D-05 0.182D-01 0.115D-01-0.545D-02
 Coeff:     -0.135D+00-0.103D+00 0.438D+00 0.781D+00
 Gap=     0.163 Goal=   None    Shift=    0.000
 Gap=     0.148 Goal=   None    Shift=    0.000
 RMSDP=1.50D-06 MaxDP=4.87D-05 DE=-2.48D-08 OVMax= 1.31D-04

 Cycle  11  Pass 1  IDiag  1:
 E= -192.409902238955     Delta-E=       -0.000000006360 Rises=F Damp=F
 DIIS: error= 1.08D-06 at cycle  11 NSaved=  11.
 NSaved=11 IEnMin=11 EnMin= -192.409902238955     IErMin=11 ErrMin= 1.08D-06
 ErrMax= 1.08D-06 EMaxC= 1.00D-01 BMatC= 1.29D-09 BMatP= 7.24D-09
 IDIUse=1 WtCom= 1.00D+00 WtEn= 0.00D+00
 Coeff-Com:  0.294D-03-0.514D-02-0.242D-02 0.760D-02 0.160D-01 0.215D-01
 Coeff-Com: -0.411D-01-0.148D+00-0.688D-02 0.366D+00 0.792D+00
 Coeff:      0.294D-03-0.514D-02-0.242D-02 0.760D-02 0.160D-01 0.215D-01
 Coeff:     -0.411D-01-0.148D+00-0.688D-02 0.366D+00 0.792D+00
 Gap=     0.163 Goal=   None    Shift=    0.000
 Gap=     0.148 Goal=   None    Shift=    0.000
 RMSDP=6.48D-07 MaxDP=2.45D-05 DE=-6.36D-09 OVMax= 4.93D-05

 Cycle  12  Pass 1  IDiag  1:
 E= -192.409902240002     Delta-E=       -0.000000001048 Rises=F Damp=F
 DIIS: error= 2.44D-07 at cycle  12 NSaved=  12.
 NSaved=12 IEnMin=12 EnMin= -192.409902240002     IErMin=12 ErrMin= 2.44D-07
 ErrMax= 2.44D-07 EMaxC= 1.00D-01 BMatC= 8.64D-11 BMatP= 1.29D-09
 IDIUse=1 WtCom= 1.00D+00 WtEn= 0.00D+00
 Coeff-Com:  0.549D-04-0.481D-03-0.636D-03-0.558D-03 0.210D-02 0.636D-02
 Coeff-Com:  0.960D-02-0.216D-01-0.586D-01-0.218D-01 0.180D+00 0.905D+00
 Coeff:      0.549D-04-0.481D-03-0.636D-03-0.558D-03 0.210D-02 0.636D-02
 Coeff:      0.960D-02-0.216D-01-0.586D-01-0.218D-01 0.180D+00 0.905D+00
 Gap=     0.163 Goal=   None    Shift=    0.000
 Gap=     0.148 Goal=   None    Shift=    0.000
 RMSDP=1.40D-07 MaxDP=3.64D-06 DE=-1.05D-09 OVMax= 7.76D-06

 Cycle  13  Pass 1  IDiag  1:
 E= -192.409902240056     Delta-E=       -0.000000000054 Rises=F Damp=F
 DIIS: error= 8.23D-08 at cycle  13 NSaved=  13.
 NSaved=13 IEnMin=13 EnMin= -192.409902240056     IErMin=13 ErrMin= 8.23D-08
 ErrMax= 8.23D-08 EMaxC= 1.00D-01 BMatC= 7.07D-12 BMatP= 8.64D-11
 IDIUse=1 WtCom= 1.00D+00 WtEn= 0.00D+00
 Coeff-Com: -0.221D-04 0.495D-03 0.126D-03-0.872D-03-0.161D-02-0.105D-02
 Coeff-Com:  0.632D-02 0.121D-01-0.748D-02-0.447D-01-0.489D-01 0.146D+00
 Coeff-Com:  0.939D+00
 Coeff:     -0.221D-04 0.495D-03 0.126D-03-0.872D-03-0.161D-02-0.105D-02
 Coeff:      0.632D-02 0.121D-01-0.748D-02-0.447D-01-0.489D-01 0.146D+00
 Coeff:      0.939D+00
 Gap=     0.163 Goal=   None    Shift=    0.000
 Gap=     0.148 Goal=   None    Shift=    0.000
 RMSDP=3.51D-08 MaxDP=7.17D-07 DE=-5.41D-11 OVMax= 2.03D-06

 Cycle  14  Pass 1  IDiag  1:
 E= -192.409902240060     Delta-E=       -0.000000000004 Rises=F Damp=F
 DIIS: error= 1.91D-08 at cycle  14 NSaved=  14.
 NSaved=14 IEnMin=14 EnMin= -192.409902240060     IErMin=14 ErrMin= 1.91D-08
 ErrMax= 1.91D-08 EMaxC= 1.00D-01 BMatC= 4.63D-13 BMatP= 7.07D-12
 IDIUse=1 WtCom= 1.00D+00 WtEn= 0.00D+00
 Coeff-Com: -0.669D-05 0.986D-04 0.570D-04-0.599D-04-0.404D-03-0.520D-03
 Coeff-Com:  0.268D-03 0.308D-02 0.292D-02-0.572D-02-0.190D-01-0.387D-01
 Coeff-Com:  0.144D+00 0.914D+00
 Coeff:     -0.669D-05 0.986D-04 0.570D-04-0.599D-04-0.404D-03-0.520D-03
 Coeff:      0.268D-03 0.308D-02 0.292D-02-0.572D-02-0.190D-01-0.387D-01
 Coeff:      0.144D+00 0.914D+00
 Gap=     0.163 Goal=   None    Shift=    0.000
 Gap=     0.148 Goal=   None    Shift=    0.000
 RMSDP=9.79D-09 MaxDP=2.13D-07 DE=-3.98D-12 OVMax= 4.80D-07

 SCF Done:  E(UB3LYP) =  -192.409902240     A.U. after   14 cycles
             Convg  =    0.9790D-08             -V/T =  2.0066
 <Sx>= 0.0000 <Sy>= 0.0000 <Sz>= 0.5000 <S**2>= 0.7563 S= 0.5031
 <L.S>= 0.000000000000E+00
 KE= 1.911577475649D+02 PE=-6.677188183007D+02 EE= 1.745977915826D+02
 Annihilation of the first spin contaminant:
 S**2 before annihilation     0.7563,   after     0.7500
 Leave Link  502 at Thu Oct 29 18:29:55 2009, MaxMem= 1258291200 cpu:     273.6
 (Enter /home/g09/l508.exe)
 QCSCF skips out because SCF is already converged.
 Leave Link  508 at Thu Oct 29 18:29:55 2009, MaxMem= 1258291200 cpu:       0.0
 (Enter /home/g09/l801.exe)
 Range of M.O.s used for correlation:     1   137
 NBasis=   137 NAE=    16 NBE=    15 NFC=     0 NFV=     0
 NROrb=    137 NOA=    16 NOB=    15 NVA=   121 NVB=   122

 **** Warning!!: The largest alpha MO coefficient is  0.31742568D+02


 **** Warning!!: The largest beta MO coefficient is  0.32226718D+02

 Leave Link  801 at Thu Oct 29 18:29:55 2009, MaxMem= 1258291200 cpu:       0.4
 (Enter /home/g09/l1101.exe)
 Leave Link 1101 at Thu Oct 29 18:29:55 2009, MaxMem= 1258291200 cpu:       0.3
 (Enter /home/g09/l1102.exe)
 Symmetrizing basis deriv contribution to polar:
 IMax=3 JMax=2 DiffMx= 0.00D+00
 Leave Link 1102 at Thu Oct 29 18:29:55 2009, MaxMem= 1258291200 cpu:       0.4
 (Enter /home/g09/l1110.exe)
 Leave Link 1110 at Thu Oct 29 18:29:55 2009, MaxMem= 1258291200 cpu:       0.3
 (Enter /home/g09/l1002.exe)
 Minotr:  UHF open shell wavefunction.
 Leave Link 1002 at Thu Oct 29 18:29:55 2009, MaxMem= 1258291200 cpu:       0.3
 (Enter /home/g09/l701.exe)
 Compute integral first derivatives.
 ... and contract with generalized density number  0.
 Leave Link  701 at Thu Oct 29 18:29:55 2009, MaxMem= 1258291200 cpu:       1.7
 (Enter /home/g09/l702.exe)
 L702 exits ... SP integral derivatives will be done elsewhere.
 Leave Link  702 at Thu Oct 29 18:29:55 2009, MaxMem= 1258291200 cpu:       0.3
 (Enter /home/g09/l703.exe)
 Compute integral first derivatives, UseDBF=F ICtDFT=           0.
 Integral derivatives from FoFDir, PRISM(SPDF).
 Calling FoFJK, ICntrl=      2127 FMM=F ISym2X=0 I1Cent= 0 IOpClX= 1 NMat=1 NMatS=1 NMatT=0.
 FoFCou: FMM=F IPFlag=           0 FMFlag=      100000 FMFlg1=         800
         NFxFlg=           0 DoJE=F BraDBF=F KetDBF=F FulRan=T
         Omega=  0.000000  0.000000  1.000000  0.000000  0.000000 ICntrl=    2127 IOpCl=  1
         NMat0=    1 NMatS0=    1 NMatT0=    0 NMatD0=    1 NMtDS0=    0 NMtDT0=    0
         I1Cent=           0 NGrid=           0.
 Symmetry not used in FoFCou.
 Leave Link  703 at Thu Oct 29 18:30:01 2009, MaxMem= 1258291200 cpu:      44.0
 (Enter /home/g09/l716.exe)
 Dipole        = 2.41024158D-02-1.24300496D-01-7.56899235D-01
 Polarizability= 0.00000000D+00 0.00000000D+00 0.00000000D+00
                 0.00000000D+00 0.00000000D+00 0.00000000D+00
 -------------------------------------------------------------------
 Center     Atomic                   Forces (Hartrees/Bohr)
 Number     Number              X              Y              Z
 -------------------------------------------------------------------
      1        6          -0.016847106   -0.011079264    0.006483284
      2        6           0.009850797    0.012275728    0.012852585
      3        6          -0.000948363    0.001417071    0.000961105
      4        8           0.002622522   -0.000969743    0.000268919
      5        1          -0.000054950    0.000252390    0.000199004
      6        1          -0.000756776   -0.000386285    0.000954328
      7        1           0.003896273   -0.004067195   -0.022142809
      8        1           0.002183223    0.002494299    0.000355057
      9        1           0.000054381    0.000062999    0.000068528
 -------------------------------------------------------------------
 Cartesian Forces:  Max     0.022142809 RMS     0.007221731
 Leave Link  716 at Thu Oct 29 18:30:01 2009, MaxMem= 1258291200 cpu:       0.4
 (Enter /home/g09/l123.exe)
 IRC-IRC-IRC-IRC-IRC-IRC-IRC-IRC-IRC-IRC-IRC-IRC-IRC-IRC-IRC-IRC-IRC-IRC
 Pt  2 Step number   1 out of a maximum of  25
 Using modified Bulirsch-Stoer corrector interation.
   Using distance weighted interpolants to fit PES.
    Cycle     1 NS=     2
    Cycle     2 NS=     4 Truncation Error =  0.000268021
    Cycle     3 NS=     6 Truncation Error =  0.000026100
    Cycle     4 NS=     8 Truncation Error =  0.000004943
    Cycle     5 NS=    12 Truncation Error =  0.000000730
 BS completed in    5 cycles and      32 integration steps.
 SUMMARY OF CORRECTOR INTEGRATION:
   Original End Point Energy  =  -192.409902
   Corrected End Point Energy =  -192.409903
   Old End-Start Dist.        =     0.106130
   New End-Start Dist.        =     0.106124
   New End-Old End Dist.      =     0.001385
 CORRECTOR INTEGRATION CONVERGENCE:
   Recorrection delta-x convergence threshold:    0.010000
   Delta-x Convergence Met
 Point Number:   2          Path Number:   1
                    CURRENT STRUCTURE
                Cartesian Coordinates (Ang):                
 ---------------------------------------------------------------------
 Center     Atomic                     Coordinates (Angstroms)
 Number     Number                        X           Y           Z
 ---------------------------------------------------------------------
      1          6                   -0.757092    0.029746   -1.591921
      2          6                   -0.853427    0.047412   -0.156142
      3          6                   -0.017701   -0.189135    0.863569
      4          8                    1.327668    0.120436    0.882118
      5          1                   -0.334131   -0.584749    1.827329
      6          1                    0.064384   -0.466468   -2.127707
      7          1                   -1.604228   -0.709073   -1.014162
      8          1                   -1.392022    0.698034   -2.176635
      9          1                    1.581885    0.484134    0.022818
 ---------------------------------------------------------------------
   CHANGE IN THE REACTION COORDINATE =    0.10612
   NET REACTION COORDINATE UP TO THIS POINT =    0.21228
  # OF POINTS ALONG THE PATH =   2
  # OF STEPS =   1

 Calculating another point on the path.
 Point Number  3 in FORWARD path direction.
 Using LQA Reaction Path Following.
   LQA: T_Est iteration completed in    3 iterations.
 IRC-IRC-IRC-IRC-IRC-IRC-IRC-IRC-IRC-IRC-IRC-IRC-IRC-IRC-IRC-IRC-IRC-IRC
 Leave Link  123 at Thu Oct 29 18:30:01 2009, MaxMem= 1258291200 cpu:       0.1
 (Enter /home/g09/l202.exe)
                          Input orientation:                          
 ---------------------------------------------------------------------
 Center     Atomic      Atomic             Coordinates (Angstroms)
 Number     Number       Type             X           Y           Z
 ---------------------------------------------------------------------
      1          6           0       -0.760332    0.027615   -1.590672
      2          6           0       -0.851560    0.049728   -0.153713
      3          6           0       -0.017878   -0.188859    0.863764
      4          8           0        1.328046    0.120298    0.882155
      5          1           0       -0.334253   -0.584160    1.827773
      6          1           0        0.062795   -0.467345   -2.125593
      7          1           0       -1.595115   -0.718005   -1.064388
      8          1           0       -1.387071    0.703826   -2.175877
      9          1           0        1.582001    0.484261    0.023010
 ---------------------------------------------------------------------
                    Distance matrix (angstroms):
                    1          2          3          4          5
     1  C    0.000000
     2  C    1.440022   0.000000
     3  C    2.573394   1.336865   0.000000
     4  O    3.238022   2.414267   1.381097   0.000000
     5  H    3.498797   2.143761   1.088884   2.038060   0.000000
     6  H    1.099393   2.234216   3.003385   3.315529   3.974972
     7  H    1.236846   1.404143   2.546653   3.610630   3.157893
     8  H    1.092029   2.191748   3.451230   4.130850   4.335498
     9  H    2.880801   2.478360   1.928620   0.967003   2.840902
                    6          7          8          9
     6  H    0.000000
     7  H    1.984352   0.000000
     8  H    1.864478   1.816671   0.000000
     9  H    2.798220   3.566783   3.701175   0.000000
 Symmetry turned off by external request.
 Stoichiometry    C3H5O(2)
 Framework group  C1[X(C3H5O)]
 Deg. of freedom    21
 Full point group                 C1      NOp   1
 Rotational constants (GHZ):     23.4338812      5.0698112      4.2997260
 Leave Link  202 at Thu Oct 29 18:30:01 2009, MaxMem= 1258291200 cpu:       0.0
 (Enter /home/g09/l301.exe)
 Standard basis: Aug-CC-pVDZ (5D, 7F)
 Ernie: Thresh=  0.10000D-02 Tol=  0.10000D-05 Strict=F.
 Ernie:  8 primitive shells out of 135 were deleted.
 Integral buffers will be    131072 words long.
 Raffenetti 2 integral format.
 Two-electron integral symmetry is turned off.
   137 basis functions,   227 primitive gaussians,   145 cartesian basis functions
    16 alpha electrons       15 beta electrons
       nuclear repulsion energy       109.5509878652 Hartrees.
 IExCor=  402 DFT=T Ex+Corr=B3LYP ExCW=0 ScaHFX=  0.200000
 ScaDFX=  0.800000  0.720000  1.000000  0.810000 ScalE2=  1.000000  1.000000
 IRadAn=      5 IRanWt=     -1 IRanGd=            0 ICorTp=0
 NAtoms=    9 NActive=    9 NUniq=    9 SFac= 7.50D-01 NAtFMM=   80 NAOKFM=F Big=F
 Leave Link  301 at Thu Oct 29 18:30:01 2009, MaxMem= 1258291200 cpu:       0.6
 (Enter /home/g09/l302.exe)
 NPDir=0 NMtPBC=     1 NCelOv=     1 NCel=       1 NClECP=     1 NCelD=      1
         NCelK=      1 NCelE2=     1 NClLst=     1 CellRange=     0.0.
 One-electron integrals computed using PRISM.
 NBasis=   137 RedAO= T  NBF=   137
 NBsUse=   137 1.00D-06 NBFU=   137
 Precomputing XC quadrature grid using
 IXCGrd= 2 IRadAn=           5 IRanWt=          -1 IRanGd=           0 AccXCQ= 1.00D-10.
 NRdTot=     769 NPtTot=      206766 NUsed=      212279 NTot=      212311
 NSgBfM=   145   145   145   145   145 NAtAll=     9     9.
 Leave Link  302 at Thu Oct 29 18:30:02 2009, MaxMem= 1258291200 cpu:       3.1
 (Enter /home/g09/l303.exe)
 DipDrv:  MaxL=1.
 Leave Link  303 at Thu Oct 29 18:30:02 2009, MaxMem= 1258291200 cpu:       0.4
 (Enter /home/g09/l401.exe)
 Initial guess read from the read-write file.
 B after Tr=     0.000000    0.000000    0.000000
         Rot=    1.000000    0.000000    0.000000    0.000000 Ang=   0.00 deg.
 Guess basis will be translated and rotated to current coordinates.
 Initial guess <Sx>= 0.0000 <Sy>= 0.0000 <Sz>= 0.5000 <S**2>= 0.7563 S= 0.5031
 Generating alternative initial guess.
 Harris functional with IExCor=  402 diagonalized for initial guess.
 ExpMin= 2.97D-02 ExpMax= 1.17D+04 ExpMxC= 4.01D+02 IAcc=3 IRadAn=         5 AccDes= 0.00D+00
 HarFok:  IExCor=  402 AccDes= 0.00D+00 IRadAn=         5 IDoV= 1
 ScaDFX=  1.000000  1.000000  1.000000  1.000000
 FoFCou: FMM=F IPFlag=           0 FMFlag=      100000 FMFlg1=           0
         NFxFlg=           0 DoJE=T BraDBF=F KetDBF=T FulRan=T
         Omega=  0.000000  0.000000  1.000000  0.000000  0.000000 ICntrl=     500 IOpCl=  0
         NMat0=    1 NMatS0=    1 NMatT0=    0 NMatD0=    1 NMtDS0=    0 NMtDT0=    0
         I1Cent=           4 NGrid=           0.
 Symmetry not used in FoFCou.
 Harris En= -192.434366119171    
 Leave Link  401 at Thu Oct 29 18:30:03 2009, MaxMem= 1258291200 cpu:       9.4
 (Enter /home/g09/l502.exe)
 UHF open shell SCF:
 Requested convergence on RMS density matrix=1.00D-08 within  64 cycles.
 Requested convergence on MAX density matrix=1.00D-06.
 Requested convergence on             energy=1.00D-06.
 No special actions if energy rises.
 Using DIIS extrapolation, IDIIS=  1040.
 Two-electron integral symmetry not used.
       212185 words used for storage of precomputed grid.
 Keep R1 and R2 ints in memory in canonical form, NReq=113891672.
 IEnd=      282846 IEndB=      282846 NGot=  1258291200 MDV=  1145980911
 LenX=  1145980911 LenY=  1145959445
 Symmetry not used in FoFDir.
 MinBra= 0 MaxBra= 2 Meth= 1.
 IRaf=       0 NMat=   1 IRICut=       1 DoRegI=T DoRafI=F ISym2E= 0 JSym2E=0.

 Cycle   1  Pass 1  IDiag  1:
 E= -192.412050835032    
 DIIS: error= 1.16D-03 at cycle   1 NSaved=   1.
 NSaved= 1 IEnMin= 1 EnMin= -192.412050835032     IErMin= 1 ErrMin= 1.16D-03
 ErrMax= 1.16D-03 EMaxC= 1.00D-01 BMatC= 1.45D-03 BMatP= 1.45D-03
 IDIUse=3 WtCom= 9.88D-01 WtEn= 1.16D-02
 Coeff-Com:  0.100D+01
 Coeff-En:   0.100D+01
 Coeff:      0.100D+01
 Gap=     0.168 Goal=   None    Shift=    0.000
 Gap=     0.200 Goal=   None    Shift=    0.000
 GapD=    0.168 DampG=1.000 DampE=1.000 DampFc=1.0000 IDamp=-1.
 RMSDP=7.31D-04 MaxDP=1.39D-02              OVMax= 2.67D-02

 Cycle   2  Pass 1  IDiag  1:
 E= -192.412905231954     Delta-E=       -0.000854396923 Rises=F Damp=F
 DIIS: error= 3.28D-04 at cycle   2 NSaved=   2.
 NSaved= 2 IEnMin= 2 EnMin= -192.412905231954     IErMin= 2 ErrMin= 3.28D-04
 ErrMax= 3.28D-04 EMaxC= 1.00D-01 BMatC= 1.16D-04 BMatP= 1.45D-03
 IDIUse=3 WtCom= 9.97D-01 WtEn= 3.28D-03
 Coeff-Com:  0.239D-01 0.976D+00
 Coeff-En:   0.000D+00 0.100D+01
 Coeff:      0.238D-01 0.976D+00
 Gap=     0.166 Goal=   None    Shift=    0.000
 Gap=     0.148 Goal=   None    Shift=    0.000
 RMSDP=1.92D-04 MaxDP=7.20D-03 DE=-8.54D-04 OVMax= 9.11D-03

 Cycle   3  Pass 1  IDiag  1:
 E= -192.412954039047     Delta-E=       -0.000048807093 Rises=F Damp=F
 DIIS: error= 3.19D-04 at cycle   3 NSaved=   3.
 NSaved= 3 IEnMin= 3 EnMin= -192.412954039047     IErMin= 3 ErrMin= 3.19D-04
 ErrMax= 3.19D-04 EMaxC= 1.00D-01 BMatC= 1.10D-04 BMatP= 1.16D-04
 IDIUse=3 WtCom= 9.97D-01 WtEn= 3.19D-03
 Coeff-Com: -0.460D-01 0.514D+00 0.532D+00
 Coeff-En:   0.000D+00 0.000D+00 0.100D+01
 Coeff:     -0.458D-01 0.512D+00 0.534D+00
 Gap=     0.166 Goal=   None    Shift=    0.000
 Gap=     0.147 Goal=   None    Shift=    0.000
 RMSDP=7.42D-05 MaxDP=3.05D-03 DE=-4.88D-05 OVMax= 5.50D-03

 Cycle   4  Pass 1  IDiag  1:
 E= -192.412986692018     Delta-E=       -0.000032652971 Rises=F Damp=F
 DIIS: error= 1.30D-04 at cycle   4 NSaved=   4.
 NSaved= 4 IEnMin= 4 EnMin= -192.412986692018     IErMin= 4 ErrMin= 1.30D-04
 ErrMax= 1.30D-04 EMaxC= 1.00D-01 BMatC= 1.87D-05 BMatP= 1.10D-04
 IDIUse=3 WtCom= 9.99D-01 WtEn= 1.30D-03
 Coeff-Com: -0.198D-01 0.673D-01 0.278D+00 0.674D+00
 Coeff-En:   0.000D+00 0.000D+00 0.000D+00 0.100D+01
 Coeff:     -0.198D-01 0.673D-01 0.278D+00 0.675D+00
 Gap=     0.166 Goal=   None    Shift=    0.000
 Gap=     0.147 Goal=   None    Shift=    0.000
 RMSDP=4.10D-05 MaxDP=2.43D-03 DE=-3.27D-05 OVMax= 2.26D-03

 Cycle   5  Pass 1  IDiag  1:
 E= -192.412994515933     Delta-E=       -0.000007823915 Rises=F Damp=F
 DIIS: error= 8.99D-05 at cycle   5 NSaved=   5.
 NSaved= 5 IEnMin= 5 EnMin= -192.412994515933     IErMin= 5 ErrMin= 8.99D-05
 ErrMax= 8.99D-05 EMaxC= 1.00D-01 BMatC= 6.76D-06 BMatP= 1.87D-05
 IDIUse=1 WtCom= 1.00D+00 WtEn= 0.00D+00
 Coeff-Com:  0.337D-02-0.135D+00 0.230D-01 0.447D+00 0.662D+00
 Coeff:      0.337D-02-0.135D+00 0.230D-01 0.447D+00 0.662D+00
 Gap=     0.166 Goal=   None    Shift=    0.000
 Gap=     0.148 Goal=   None    Shift=    0.000
 RMSDP=3.07D-05 MaxDP=7.13D-04 DE=-7.82D-06 OVMax= 2.78D-03

 Cycle   6  Pass 1  IDiag  1:
 E= -192.412998467336     Delta-E=       -0.000003951403 Rises=F Damp=F
 DIIS: error= 3.82D-05 at cycle   6 NSaved=   6.
 NSaved= 6 IEnMin= 6 EnMin= -192.412998467336     IErMin= 6 ErrMin= 3.82D-05
 ErrMax= 3.82D-05 EMaxC= 1.00D-01 BMatC= 1.82D-06 BMatP= 6.76D-06
 IDIUse=1 WtCom= 1.00D+00 WtEn= 0.00D+00
 Coeff-Com:  0.760D-02-0.102D+00-0.642D-01 0.309D-01 0.399D+00 0.728D+00
 Coeff:      0.760D-02-0.102D+00-0.642D-01 0.309D-01 0.399D+00 0.728D+00
 Gap=     0.166 Goal=   None    Shift=    0.000
 Gap=     0.147 Goal=   None    Shift=    0.000
 RMSDP=1.73D-05 MaxDP=5.52D-04 DE=-3.95D-06 OVMax= 1.47D-03

 Cycle   7  Pass 1  IDiag  1:
 E= -192.412999736460     Delta-E=       -0.000001269124 Rises=F Damp=F
 DIIS: error= 1.71D-05 at cycle   7 NSaved=   7.
 NSaved= 7 IEnMin= 7 EnMin= -192.412999736460     IErMin= 7 ErrMin= 1.71D-05
 ErrMax= 1.71D-05 EMaxC= 1.00D-01 BMatC= 2.55D-07 BMatP= 1.82D-06
 IDIUse=1 WtCom= 1.00D+00 WtEn= 0.00D+00
 Coeff-Com:  0.163D-02-0.567D-03-0.178D-01-0.111D+00 0.990D-02 0.204D+00
 Coeff-Com:  0.914D+00
 Coeff:      0.163D-02-0.567D-03-0.178D-01-0.111D+00 0.990D-02 0.204D+00
 Coeff:      0.914D+00
 Gap=     0.166 Goal=   None    Shift=    0.000
 Gap=     0.147 Goal=   None    Shift=    0.000
 RMSDP=9.87D-06 MaxDP=4.15D-04 DE=-1.27D-06 OVMax= 8.53D-04

 Cycle   8  Pass 1  IDiag  1:
 E= -192.413000072678     Delta-E=       -0.000000336218 Rises=F Damp=F
 DIIS: error= 6.76D-06 at cycle   8 NSaved=   8.
 NSaved= 8 IEnMin= 8 EnMin= -192.413000072678     IErMin= 8 ErrMin= 6.76D-06
 ErrMax= 6.76D-06 EMaxC= 1.00D-01 BMatC= 7.48D-08 BMatP= 2.55D-07
 IDIUse=1 WtCom= 1.00D+00 WtEn= 0.00D+00
 Coeff-Com: -0.171D-02 0.327D-01 0.174D-01-0.563D-01-0.114D+00-0.150D+00
 Coeff-Com:  0.341D+00 0.931D+00
 Coeff:     -0.171D-02 0.327D-01 0.174D-01-0.563D-01-0.114D+00-0.150D+00
 Coeff:      0.341D+00 0.931D+00
 Gap=     0.166 Goal=   None    Shift=    0.000
 Gap=     0.147 Goal=   None    Shift=    0.000
 RMSDP=5.84D-06 MaxDP=1.69D-04 DE=-3.36D-07 OVMax= 5.54D-04

 Cycle   9  Pass 1  IDiag  1:
 E= -192.413000182698     Delta-E=       -0.000000110020 Rises=F Damp=F
 DIIS: error= 4.27D-06 at cycle   9 NSaved=   9.
 NSaved= 9 IEnMin= 9 EnMin= -192.413000182698     IErMin= 9 ErrMin= 4.27D-06
 ErrMax= 4.27D-06 EMaxC= 1.00D-01 BMatC= 2.26D-08 BMatP= 7.48D-08
 IDIUse=1 WtCom= 1.00D+00 WtEn= 0.00D+00
 Coeff-Com: -0.113D-02 0.144D-01 0.127D-01 0.436D-03-0.541D-01-0.115D+00
 Coeff-Com: -0.715D-01 0.434D+00 0.780D+00
 Coeff:     -0.113D-02 0.144D-01 0.127D-01 0.436D-03-0.541D-01-0.115D+00
 Coeff:     -0.715D-01 0.434D+00 0.780D+00
 Gap=     0.166 Goal=   None    Shift=    0.000
 Gap=     0.147 Goal=   None    Shift=    0.000
 RMSDP=2.83D-06 MaxDP=9.54D-05 DE=-1.10D-07 OVMax= 2.29D-04

 Cycle  10  Pass 1  IDiag  1:
 E= -192.413000207536     Delta-E=       -0.000000024838 Rises=F Damp=F
 DIIS: error= 2.38D-06 at cycle  10 NSaved=  10.
 NSaved=10 IEnMin=10 EnMin= -192.413000207536     IErMin=10 ErrMin= 2.38D-06
 ErrMax= 2.38D-06 EMaxC= 1.00D-01 BMatC= 6.27D-09 BMatP= 2.26D-08
 IDIUse=1 WtCom= 1.00D+00 WtEn= 0.00D+00
 Coeff-Com:  0.418D-04-0.401D-02 0.638D-03 0.182D-01 0.918D-02-0.823D-02
 Coeff-Com: -0.136D+00-0.831D-01 0.380D+00 0.823D+00
 Coeff:      0.418D-04-0.401D-02 0.638D-03 0.182D-01 0.918D-02-0.823D-02
 Coeff:     -0.136D+00-0.831D-01 0.380D+00 0.823D+00
 Gap=     0.166 Goal=   None    Shift=    0.000
 Gap=     0.147 Goal=   None    Shift=    0.000
 RMSDP=1.49D-06 MaxDP=4.83D-05 DE=-2.48D-08 OVMax= 1.29D-04

 Cycle  11  Pass 1  IDiag  1:
 E= -192.413000213528     Delta-E=       -0.000000005992 Rises=F Damp=F
 DIIS: error= 9.59D-07 at cycle  11 NSaved=  11.
 NSaved=11 IEnMin=11 EnMin= -192.413000213528     IErMin=11 ErrMin= 9.59D-07
 ErrMax= 9.59D-07 EMaxC= 1.00D-01 BMatC= 1.03D-09 BMatP= 6.27D-09
 IDIUse=1 WtCom= 1.00D+00 WtEn= 0.00D+00
 Coeff-Com:  0.256D-03-0.476D-02-0.238D-02 0.760D-02 0.148D-01 0.197D-01
 Coeff-Com: -0.420D-01-0.133D+00-0.120D-01 0.350D+00 0.802D+00
 Coeff:      0.256D-03-0.476D-02-0.238D-02 0.760D-02 0.148D-01 0.197D-01
 Coeff:     -0.420D-01-0.133D+00-0.120D-01 0.350D+00 0.802D+00
 Gap=     0.166 Goal=   None    Shift=    0.000
 Gap=     0.147 Goal=   None    Shift=    0.000
 RMSDP=5.92D-07 MaxDP=2.16D-05 DE=-5.99D-09 OVMax= 4.55D-05

 Cycle  12  Pass 1  IDiag  1:
[...]
  35                   -0.06609   3.58915
  36                   -0.06614   3.68248
  37                   -0.06617   3.76682
  38                   -0.06618   3.83892
  39                   -0.06620   3.93697
  40                   -0.06621   4.02903
  41                   -0.06622   4.12271
 --------------------------------------------------------------------------
 
 Total number of points:                   40
 Total number of gradient calculations:   106
 Total number of Hessian calculations:      0
 IRC-IRC-IRC-IRC-IRC-IRC-IRC-IRC-IRC-IRC-IRC-IRC-IRC-IRC-IRC-IRC-IRC-IRC
 Leave Link  123 at Thu Oct 29 19:34:35 2009, MaxMem= 1258291200 cpu:       1.1
 (Enter /home/g09/l202.exe)
                          Input orientation:                          
 ---------------------------------------------------------------------
 Center     Atomic      Atomic             Coordinates (Angstroms)
 Number     Number       Type             X           Y           Z
 ---------------------------------------------------------------------
      1          6           0       -0.866880    0.019661   -1.616233
      2          6           0       -0.818439   -0.069259   -0.147993
      3          6           0       -0.017692   -0.059812    0.899639
      4          8           0        1.366438    0.083388    0.907569
      5          1           0       -0.386633   -0.167186    1.920513
      6          1           0        0.145304   -0.040329   -2.062169
      7          1           0       -1.450950   -0.807550   -2.049283
      8          1           0       -1.320449    0.963660   -1.954142
      9          1           0        1.684741    0.186484    0.001260
 ---------------------------------------------------------------------
                    Distance matrix (angstroms):
                    1          2          3          4          5
     1  C    0.000000
     2  C    1.471728   0.000000
     3  C    2.656511   1.318642   0.000000
     4  O    3.370660   2.431296   1.391541   0.000000
     5  H    3.574090   2.115363   1.090793   2.040123   0.000000
     6  H    1.107689   2.143294   2.966354   3.213381   4.020051
     7  H    1.101339   2.135427   3.362958   4.180242   4.159582
     8  H    1.100473   2.140353   3.299809   4.022888   4.142919
     9  H    3.025704   2.520633   1.940625   0.966096   2.845911
                    6          7          8          9
     6  H    0.000000
     7  H    1.771107   0.000000
     8  H    1.779915   1.778558   0.000000
     9  H    2.584385   3.876259   3.668619   0.000000
 Symmetry turned off by external request.
 Stoichiometry    C3H5O(2)
 Framework group  C1[X(C3H5O)]
 Deg. of freedom    21
 Full point group                 C1      NOp   1
 Rotational constants (GHZ):     24.3182020      4.7185169      4.0529918
 Leave Link  202 at Thu Oct 29 19:34:35 2009, MaxMem= 1258291200 cpu:       0.0
 (Enter /home/g09/l601.exe)
 Copying SCF densities to generalized density rwf, IOpCl= 1 IROHF=0.

 **********************************************************************

            Population analysis using the SCF density.

 **********************************************************************

 Alpha  occ. eigenvalues --  -19.18142 -10.24366 -10.21219 -10.20569  -1.05789
 Alpha  occ. eigenvalues --   -0.79258  -0.70950  -0.59602  -0.48568  -0.47179
 Alpha  occ. eigenvalues --   -0.43611  -0.42231  -0.38470  -0.38376  -0.23952
 Alpha  occ. eigenvalues --   -0.23427
 Alpha virt. eigenvalues --   -0.02206   0.00647   0.01355   0.01653   0.03165
 Alpha virt. eigenvalues --    0.03763   0.05393   0.07262   0.07699   0.08260
 Alpha virt. eigenvalues --    0.08777   0.10338   0.10761   0.11190   0.11871
 Alpha virt. eigenvalues --    0.12398   0.12866   0.16005   0.16673   0.17902
 Alpha virt. eigenvalues --    0.18778   0.19138   0.20015   0.22201   0.23968
 Alpha virt. eigenvalues --    0.26292   0.28129   0.29124   0.30056   0.30565
 Alpha virt. eigenvalues --    0.31626   0.33386   0.34002   0.36374   0.37000
 Alpha virt. eigenvalues --    0.37316   0.40450   0.41331   0.42650   0.43152
 Alpha virt. eigenvalues --    0.44030   0.45627   0.48242   0.48898   0.50346
 Alpha virt. eigenvalues --    0.51106   0.52114   0.55126   0.56260   0.56846
 Alpha virt. eigenvalues --    0.57119   0.60681   0.62609   0.63154   0.64358
 Alpha virt. eigenvalues --    0.65383   0.66665   0.67372   0.75048   0.76991
 Alpha virt. eigenvalues --    0.79452   0.83851   0.84656   0.88597   0.89506
 Alpha virt. eigenvalues --    0.90371   0.93866   0.94388   1.01754   1.03906
 Alpha virt. eigenvalues --    1.07806   1.09604   1.11697   1.19626   1.23377
 Alpha virt. eigenvalues --    1.29273   1.29992   1.35899   1.36502   1.39846
 Alpha virt. eigenvalues --    1.41018   1.47495   1.49185   1.54780   1.56633
 Alpha virt. eigenvalues --    1.59560   1.61647   1.63209   1.65419   1.67692
 Alpha virt. eigenvalues --    1.76498   1.77225   1.79928   1.86088   1.86946
 Alpha virt. eigenvalues --    1.92189   1.97373   1.98264   2.03837   2.04737
 Alpha virt. eigenvalues --    2.07994   2.14464   2.18594   2.19987   2.29491
 Alpha virt. eigenvalues --    2.37600   2.43812   2.47368   2.49925   2.58135
 Alpha virt. eigenvalues --    2.59642   2.64680   2.68342   2.71010   2.86101
 Alpha virt. eigenvalues --    3.03420   3.33856   3.36598   3.41071   3.56404
 Alpha virt. eigenvalues --    3.90158
  Beta  occ. eigenvalues --  -19.17959 -10.24496 -10.21226 -10.19093  -1.05323
  Beta  occ. eigenvalues --   -0.77459  -0.70465  -0.58656  -0.47708  -0.45174
  Beta  occ. eigenvalues --   -0.43284  -0.41536  -0.38524  -0.37783  -0.23002
  Beta virt. eigenvalues --   -0.08592  -0.02152   0.00774   0.01400   0.01942
  Beta virt. eigenvalues --    0.03540   0.03869   0.05706   0.07300   0.07904
  Beta virt. eigenvalues --    0.08324   0.08859   0.10411   0.10858   0.11371
  Beta virt. eigenvalues --    0.11935   0.12521   0.13011   0.16390   0.16952
  Beta virt. eigenvalues --    0.18170   0.18849   0.19891   0.20286   0.22802
  Beta virt. eigenvalues --    0.24196   0.26607   0.28772   0.29240   0.30452
  Beta virt. eigenvalues --    0.30899   0.31872   0.33423   0.34080   0.36571
  Beta virt. eigenvalues --    0.37287   0.37988   0.40713   0.41677   0.42820
  Beta virt. eigenvalues --    0.43309   0.44396   0.46809   0.48824   0.49310
  Beta virt. eigenvalues --    0.50723   0.51485   0.52532   0.55639   0.56660
  Beta virt. eigenvalues --    0.57096   0.58249   0.61012   0.63324   0.63888
  Beta virt. eigenvalues --    0.64765   0.65679   0.66898   0.67620   0.75934
  Beta virt. eigenvalues --    0.77242   0.79706   0.84071   0.85436   0.88950
  Beta virt. eigenvalues --    0.90508   0.90996   0.94447   0.94985   1.01888
  Beta virt. eigenvalues --    1.04163   1.07850   1.10313   1.12655   1.20300
  Beta virt. eigenvalues --    1.23876   1.29661   1.30464   1.36057   1.37053
  Beta virt. eigenvalues --    1.41075   1.42200   1.49482   1.50568   1.56009
  Beta virt. eigenvalues --    1.58467   1.61086   1.62162   1.63698   1.65588
  Beta virt. eigenvalues --    1.68434   1.77122   1.77528   1.80518   1.86603
  Beta virt. eigenvalues --    1.87281   1.92675   1.97601   1.98853   2.04442
  Beta virt. eigenvalues --    2.05494   2.08602   2.14755   2.19195   2.20778
  Beta virt. eigenvalues --    2.30036   2.38636   2.44449   2.48258   2.50472
  Beta virt. eigenvalues --    2.58494   2.59974   2.64927   2.68845   2.71718
  Beta virt. eigenvalues --    2.88164   3.04208   3.34149   3.36739   3.41486
  Beta virt. eigenvalues --    3.56940   3.90368
          Condensed to atoms (all electrons):
              1          2          3          4          5          6
     1  C    4.424248   0.275788  -0.285567  -0.040807   0.058269   0.387348
     2  C    0.275788   6.495420  -0.212715  -0.134810  -0.212890  -0.127163
     3  C   -0.285567  -0.212715   5.653156   0.112643  -0.064524  -0.126784
     4  O   -0.040807  -0.134810   0.112643   8.428168  -0.218898  -0.028686
     5  H    0.058269  -0.212890  -0.064524  -0.218898   1.937504   0.004115
     6  H    0.387348  -0.127163  -0.126784  -0.028686   0.004115   1.550721
     7  H    0.281340   0.013534  -0.021133   0.007898  -0.001138  -0.168688
     8  H    0.258109   0.052997   0.008893   0.013426   0.002190  -0.216843
     9  H    0.015008  -0.005452  -0.094245   0.280432   0.047252   0.012342
              7          8          9
     1  C    0.281340   0.258109   0.015008
     2  C    0.013534   0.052997  -0.005452
     3  C   -0.021133   0.008893  -0.094245
     4  O    0.007898   0.013426   0.280432
     5  H   -0.001138   0.002190   0.047252
     6  H   -0.168688  -0.216843   0.012342
     7  H    1.243023  -0.177032  -0.000850
     8  H   -0.177032   1.202537   0.001242
     9  H   -0.000850   0.001242   0.676018
 Mulliken atomic charges:
              1
     1  C    0.626263
     2  C   -0.144708
     3  C    1.030275
     4  O   -0.419366
     5  H   -0.551880
     6  H   -0.286361
     7  H   -0.176956
     8  H   -0.145520
     9  H    0.068253
 Sum of Mulliken atomic charges =   0.00000
 Mulliken charges with hydrogens summed into heavy atoms:
              1
     1  C    0.017426
     2  C   -0.144708
     3  C    0.478395
     4  O   -0.351113
 Sum of Mulliken charges with hydrogens summed into heavy atoms =   0.00000
          Atomic-Atomic Spin Densities.
              1          2          3          4          5          6
     1  C   -0.005667  -0.055726   0.037357  -0.009056   0.008414  -0.048612
     2  C   -0.055726   1.338995  -0.157474   0.008438  -0.048931   0.038479
     3  C    0.037357  -0.157474  -0.013526  -0.029133   0.030696  -0.039515
     4  O   -0.009056   0.008438  -0.029133   0.085409  -0.012653   0.010086
     5  H    0.008414  -0.048931   0.030696  -0.012653   0.048713  -0.004024
     6  H   -0.048612   0.038479  -0.039515   0.010086  -0.004024   0.153271
     7  H    0.023262  -0.048137   0.015712  -0.002427   0.001906  -0.027190
     8  H    0.009774  -0.025567   0.008885  -0.001382   0.000981  -0.015862
     9  H    0.000289   0.003054   0.001326   0.000074   0.000337  -0.001472
              7          8          9
     1  C    0.023262   0.009774   0.000289
     2  C   -0.048137  -0.025567   0.003054
     3  C    0.015712   0.008885   0.001326
     4  O   -0.002427  -0.001382   0.000074
     5  H    0.001906   0.000981   0.000337
     6  H   -0.027190  -0.015862  -0.001472
     7  H    0.035295   0.002653   0.000074
     8  H    0.002653   0.013367   0.000018
     9  H    0.000074   0.000018  -0.005171
 Mulliken atomic spin densities:
              1
     1  C   -0.039964
     2  C    1.053132
     3  C   -0.145670
     4  O    0.049356
     5  H    0.025440
     6  H    0.065161
     7  H    0.001149
     8  H   -0.007133
     9  H   -0.001471
 Sum of Mulliken atomic spin densities =   1.00000
 APT atomic charges:
              1
     1  C   -0.045807
     2  C   -0.516587
     3  C    0.264458
     4  O   -0.424177
     5  H   -0.085219
     6  H    0.135687
     7  H    0.216535
     8  H    0.231081
     9  H    0.224030
 Sum of APT charges=   0.00000
 APT Atomic charges with hydrogens summed into heavy atoms:
              1
     1  C    0.537495
     2  C   -0.516587
     3  C    0.179238
     4  O   -0.200147
     5  H    0.000000
     6  H    0.000000
     7  H    0.000000
     8  H    0.000000
     9  H    0.000000
 Sum of APT charges=   0.00000
 Electronic spatial extent (au):  <R**2>=            324.7487
 Charge=              0.0000 electrons
 Dipole moment (field-independent basis, Debye):
    X=             -0.0280    Y=              0.1299    Z=             -1.9507  Tot=              1.9552
 Quadrupole moment (field-independent basis, Debye-Ang):
   XX=            -25.6193   YY=            -26.3967   ZZ=            -23.1607
   XY=              0.2983   XZ=             -2.1766   YZ=             -0.4310
 Traceless Quadrupole moment (field-independent basis, Debye-Ang):
   XX=             -0.5604   YY=             -1.3378   ZZ=              1.8982
   XY=              0.2983   XZ=             -2.1766   YZ=             -0.4310
 Octapole moment (field-independent basis, Debye-Ang**2):
  XXX=             11.2802  YYY=              0.7419  ZZZ=              8.9036  XYY=              2.4230
  XXY=              0.6322  XXZ=             -4.7732  XZZ=             -2.3120  YZZ=             -0.8721
  YYZ=              0.7605  XYZ=             -0.2973
 Hexadecapole moment (field-independent basis, Debye-Ang**3):
 XXXX=           -163.7364 YYYY=            -37.7411 ZZZZ=           -227.0242 XXXY=             -1.2082
 XXXZ=            -60.8526 YYYX=             -3.6666 YYYZ=              0.6209 ZZZX=            -57.5346
 ZZZY=              0.3091 XXYY=            -33.8826 XXZZ=            -68.7593 YYZZ=            -44.6626
 XXYZ=              0.0595 YYXZ=            -16.3357 ZZXY=             -0.8130
 N-N= 1.078982311555D+02 E-N=-9.912437318611D+02  KE= 2.860520506852D+02
  Exact polarizability:   0.000   0.000   0.000   0.000   0.000   0.000
 Approx polarizability:  67.807   0.925  47.266  14.032  -0.627  76.220
                          Isotropic Fermi Contact Couplings
        Atom                 a.u.       MegaHertz       Gauss      10(-4) cm-1
     1  C(13)              0.00098       1.10204       0.39324       0.36760
     2  C(13)              0.28783     323.57839     115.46081     107.93413
     3  C(13)              0.02156      24.23470       8.64754       8.08383
     4  O(17)              0.04131     -25.04222      -8.93568      -8.35318
     5  H(1)               0.01170      52.30594      18.66406      17.44738
     6  H(1)               0.02648     118.37491      42.23911      39.48562
     7  H(1)               0.00821      36.70212      13.09623      12.24251
     8  H(1)               0.00282      12.62412       4.50460       4.21095
     9  H(1)              -0.00109      -4.88537      -1.74322      -1.62959
 --------------------------------------------------------
       Center         ----  Spin Dipole Couplings  ----
                      3XX-RR        3YY-RR        3ZZ-RR
 --------------------------------------------------------
     1   Atom       -0.019350     -0.029126      0.048476
     2   Atom        0.737583     -0.371422     -0.366161
     3   Atom        0.031821     -0.114707      0.082886
     4   Atom        0.270282     -0.210080     -0.060202
     5   Atom       -0.000481     -0.011525      0.012006
     6   Atom        0.001081     -0.010139      0.009058
     7   Atom       -0.008923     -0.006611      0.015535
     8   Atom       -0.008316     -0.002708      0.011024
     9   Atom        0.013443     -0.015372      0.001929
 --------------------------------------------------------
                        XY            XZ            YZ
 --------------------------------------------------------
     1   Atom        0.004984     -0.021861     -0.007946
     2   Atom        0.145384     -0.461677     -0.048630
     3   Atom        0.013153      0.034548     -0.010524
     4   Atom        0.035293      0.153396      0.003472
     5   Atom        0.000310      0.012714     -0.000375
     6   Atom       -0.001131     -0.007176     -0.000879
     7   Atom        0.002904      0.005794      0.011168
     8   Atom       -0.002877      0.002770     -0.013189
     9   Atom        0.003430     -0.004416     -0.001745
 --------------------------------------------------------


 ---------------------------------------------------------------------------------
              Anisotropic Spin Dipole Couplings in Principal Axis System
 ---------------------------------------------------------------------------------

       Atom             a.u.   MegaHertz   Gauss  10(-4) cm-1        Axes

              Baa    -0.0313    -4.194    -1.496    -1.399 -0.4289  0.9029 -0.0276
     1 C(13)  Bbb    -0.0246    -3.304    -1.179    -1.102  0.8576  0.4166  0.3017
              Bcc     0.0559     7.497     2.675     2.501 -0.2840 -0.1057  0.9530
 
              Baa    -0.5339   -71.646   -25.565   -23.899  0.3439 -0.0268  0.9386
     2 C(13)  Bbb    -0.3895   -52.261   -18.648   -17.432 -0.1013  0.9927  0.0654
              Bcc     0.9234   123.907    44.213    41.331  0.9335  0.1175 -0.3387
 
              Baa    -0.1168   -15.678    -5.594    -5.230 -0.1041  0.9921  0.0703
     3 C(13)  Bbb     0.0165     2.209     0.788     0.737  0.8882  0.1245 -0.4422
              Bcc     0.1004    13.469     4.806     4.493  0.4475 -0.0164  0.8941
 
              Baa    -0.2132    15.429     5.505     5.147 -0.0958  0.9927  0.0735
     4 O(17)  Bbb    -0.1194     8.642     3.084     2.882 -0.3562 -0.1031  0.9287
              Bcc     0.3327   -24.071    -8.589    -8.029  0.9295  0.0628  0.3635
 
              Baa    -0.0116    -6.185    -2.207    -2.063 -0.1189  0.9897  0.0798
     5 H(1)   Bbb    -0.0083    -4.447    -1.587    -1.483  0.8404  0.1431 -0.5227
              Bcc     0.0199    10.632     3.794     3.547  0.5287 -0.0049  0.8488
 
              Baa    -0.0104    -5.559    -1.983    -1.854  0.1612  0.9815  0.1037
     6 H(1)   Bbb    -0.0029    -1.528    -0.545    -0.510  0.8471 -0.1915  0.4958
              Bcc     0.0133     7.086     2.528     2.364 -0.5064 -0.0079  0.8622
 
              Baa    -0.0114    -6.102    -2.177    -2.035 -0.3534  0.8887 -0.2921
     7 H(1)   Bbb    -0.0101    -5.401    -1.927    -1.802  0.9122  0.2581 -0.3183
              Bcc     0.0216    11.503     4.105     3.837  0.2075  0.3789  0.9019
 
              Baa    -0.0112    -5.953    -2.124    -1.986  0.3988  0.8092  0.4314
     8 H(1)   Bbb    -0.0084    -4.485    -1.600    -1.496  0.9067 -0.2775 -0.3177
              Bcc     0.0196    10.438     3.724     3.482  0.1373 -0.5178  0.8444
 
              Baa    -0.0159    -8.463    -3.020    -2.823 -0.1054  0.9919  0.0711
     9 H(1)   Bbb     0.0004     0.239     0.085     0.080  0.3293 -0.0327  0.9437
              Bcc     0.0154     8.224     2.935     2.743  0.9383  0.1229 -0.3232
 

 ---------------------------------------------------------------------------------

 No NMR shielding tensors so no spin-rotation constants.
 Leave Link  601 at Thu Oct 29 19:34:35 2009, MaxMem= 1258291200 cpu:       2.5
 (Enter /home/g09/l716.exe)
 Dipole        =-1.10018720D-02 5.11053463D-02-7.67462813D-01
 Polarizability= 0.00000000D+00 0.00000000D+00 0.00000000D+00
                 0.00000000D+00 0.00000000D+00 0.00000000D+00
 -------------------------------------------------------------------
 Center     Atomic                   Forces (Hartrees/Bohr)
 Number     Number              X              Y              Z
 -------------------------------------------------------------------
      1        6          -0.000167217   -0.000547601   -0.000082082
      2        6           0.000045729    0.000147337   -0.000036737
      3        6          -0.000114747    0.000130549    0.000207411
      4        8           0.000113054   -0.000180196   -0.000094352
      5        1           0.000025811   -0.000026986   -0.000111199
      6        1           0.000014154    0.000100366    0.000046415
      7        1           0.000217005    0.000274564    0.000085534
      8        1          -0.000127571    0.000065315   -0.000073053
      9        1          -0.000006219    0.000036652    0.000058064
 -------------------------------------------------------------------
 Cartesian Forces:  Max     0.000547601 RMS     0.000157963
 Leave Link  716 at Thu Oct 29 19:34:35 2009, MaxMem= 1258291200 cpu:       0.3
 (Enter /home/g09/l9999.exe)

 This type of calculation cannot be archived.


 ART, GLORY, FREEDOM FAIL, BUT NATURE STILL IS FAIR.

                                           -- BYRON
 Job cpu time:  0 days  8 hours 41 minutes 33.1 seconds.
 File lengths (MBytes):  RWF=     20 Int=      0 D2E=      0 Chk=      4 Scr=      1
 Normal termination of Gaussian 09 at Thu Oct 29 19:34:36 2009.
