 Entering Gaussian System, Link 0=g09
 Input=/home/benjfitz/c3h5o-int18-ts-int9-2_qst2-ump2-avdz-tight-p.com
 Output=/home/benjfitz/c3h5o-int18-ts-int9-2_qst2-ump2-avdz-tight-p.log
 Initial command:
 /home/g09/l1.exe /scratch/benjfitz/Gau-5855.inp -scrdir=/scratch/benjfitz/
 Entering Link 1 = /home/g09/l1.exe PID=      5856.
  
 Copyright (c) 1988,1990,1992,1993,1995,1998,2003,2009, Gaussian, Inc.
                  All Rights Reserved.
  
 This is part of the Gaussian(R) 09 program.  It is based on
 the Gaussian(R) 03 system (copyright 2003, Gaussian, Inc.),
 the Gaussian(R) 98 system (copyright 1998, Gaussian, Inc.),
 the Gaussian(R) 94 system (copyright 1995, Gaussian, Inc.),
 the Gaussian 92(TM) system (copyright 1992, Gaussian, Inc.),
 the Gaussian 90(TM) system (copyright 1990, Gaussian, Inc.),
 the Gaussian 88(TM) system (copyright 1988, Gaussian, Inc.),
 the Gaussian 86(TM) system (copyright 1986, Carnegie Mellon
 University), and the Gaussian 82(TM) system (copyright 1983,
 Carnegie Mellon University). Gaussian is a federally registered
 trademark of Gaussian, Inc.
  
 This software contains proprietary and confidential information,
 including trade secrets, belonging to Gaussian, Inc.
  
 This software is provided under written license and may be
 used, copied, transmitted, or stored only in accord with that
 written license.
  
 The following legend is applicable only to US Government
 contracts under FAR:
  
                    RESTRICTED RIGHTS LEGEND
  
 Use, reproduction and disclosure by the US Government is
 subject to restrictions as set forth in subparagraphs (a)
 and (c) of the Commercial Computer Software - Restricted
 Rights clause in FAR 52.227-19.
  
 Gaussian, Inc.
 340 Quinnipiac St., Bldg. 40, Wallingford CT 06492
  
  
 ---------------------------------------------------------------
 Warning -- This program may not be used in any manner that
 competes with the business of Gaussian, Inc. or will provide
 assistance to any competitor of Gaussian, Inc.  The licensee
 of this program is prohibited from giving any competitor of
 Gaussian, Inc. access to this program.  By using this program,
 the user acknowledges that Gaussian, Inc. is engaged in the
 business of creating and licensing software in the field of
 computational chemistry and represents and warrants to the
 licensee that it is not a competitor of Gaussian, Inc. and that
 it will not use this program in any manner prohibited above.
 ---------------------------------------------------------------
  

 Cite this work as:
 Gaussian 09, Revision A.02,
 M. J. Frisch, G. W. Trucks, H. B. Schlegel, G. E. Scuseria, 
 M. A. Robb, J. R. Cheeseman, G. Scalmani, V. Barone, B. Mennucci, 
 G. A. Petersson, H. Nakatsuji, M. Caricato, X. Li, H. P. Hratchian, 
 A. F. Izmaylov, J. Bloino, G. Zheng, J. L. Sonnenberg, M. Hada, 
 M. Ehara, K. Toyota, R. Fukuda, J. Hasegawa, M. Ishida, T. Nakajima, 
 Y. Honda, O. Kitao, H. Nakai, T. Vreven, J. A. Montgomery, Jr., 
 J. E. Peralta, F. Ogliaro, M. Bearpark, J. J. Heyd, E. Brothers, 
 K. N. Kudin, V. N. Staroverov, R. Kobayashi, J. Normand, 
 K. Raghavachari, A. Rendell, J. C. Burant, S. S. Iyengar, J. Tomasi, 
 M. Cossi, N. Rega, J. M. Millam, M. Klene, J. E. Knox, J. B. Cross, 
 V. Bakken, C. Adamo, J. Jaramillo, R. Gomperts, R. E. Stratmann, 
 O. Yazyev, A. J. Austin, R. Cammi, C. Pomelli, J. W. Ochterski, 
 R. L. Martin, K. Morokuma, V. G. Zakrzewski, G. A. Voth, 
 P. Salvador, J. J. Dannenberg, S. Dapprich, A. D. Daniels, 
 O. Farkas, J. B. Foresman, J. V. Ortiz, J. Cioslowski, 
 and D. J. Fox, Gaussian, Inc., Wallingford CT, 2009.
 
 ******************************************
 Gaussian 09:  EM64L-G09RevA.02 11-Jun-2009
                23-Oct-2009 
 ******************************************
 %Mem=1200MW
 %NProcShared=8
 Will use up to    8 processors via shared memory.
 %RWF=/scratch/benjfitz/a,4000MW
 %NoSave
 %chk=/home/benjfitz/c3h5o-int18-ts-int9-2_qst2-ump2-avdz-tight-p.chk
 ----------------------------------------------------------------------
 #P ump2/aug-cc-pvdz 5D 7F SCF(xqc,tight) Opt(Maxcycle=50,qst2,tight,ca
 lcall) nosymm MaxDisk=4000MW
 ----------------------------------------------------------------------
 1/5=1,6=50,7=10,10=4,18=20,27=202,38=1/1,3;
 2/9=110,12=2,15=1,17=6,18=5,40=1/2;
 3/5=16,7=10,8=11,11=2,16=1,25=1,30=1,71=2,116=2/1,2,3;
 4//1;
 5/5=2,8=3,13=1,32=2,38=5/2,8;
 8/6=3,8=1,10=1,19=11,30=-1/1;
 9/15=3,16=-3/6;
 11/6=1,8=1,15=11,17=12,24=-1,27=1,28=-2,29=300,31=1,32=6,42=3/1,2,10;
 10/6=2,21=1,31=1/2;
 8/6=4,8=1,10=1,19=11,30=-1/11,4;
 10/5=1,20=4,31=1/2;
 11/12=2,14=11,16=1,17=2,28=-2,31=1,42=3/2,10,12;
 6/7=2,8=2,9=2,10=2,18=1/1;
 7/10=1,12=2,25=1,30=1,44=2/1,2,3,16;
 1/5=1,6=50,7=10,10=4,18=20,27=202/3(3);
 2/9=110,15=1/2;
 7/8=1,9=1,25=1,30=1,44=-1/16;
 99//99;
 2/9=110,15=1/2;
 3/5=16,7=10,8=11,11=2,16=1,25=1,30=1,71=2,116=2/1,2,3;
 4/5=5,16=3/1;
 5/5=2,8=3,13=1,32=2,38=5/2,8;
 8/6=3,8=1,10=1,19=11,30=-1/1;
 9/15=3,16=-3/6;
 11/6=1,8=1,15=11,17=12,24=-1,27=1,28=-2,29=300,31=1,32=6,42=3/1,2,10;
 10/6=2,21=1,31=1/2;
 8/6=4,8=1,10=1,19=11,30=-1/11,4;
 10/5=1,20=4,31=1/2;
 11/12=2,14=11,16=1,17=2,28=-2,31=1,42=3/2,10,12;
 7/10=1,12=2,25=1,30=1,44=2/1,2,3,16;
 1/5=1,6=50,7=10,10=4,18=20,27=202/3(-12);
 2/9=110,15=1/2;
 6/7=2,8=2,9=2,10=2,18=1/1;
 7/8=1,9=1,25=1,30=1,44=-1/16;
 99//99;
 Leave Link    1 at Fri Oct 23 16:58:45 2009, MaxMem= 1258291200 cpu:       0.5
 (Enter /home/g09/l101.exe)
 --------------------------------
 cyclopropanol w/ radical at OH C
 --------------------------------
 Symbolic Z-matrix:
 Charge =  0 Multiplicity = 2
 c
 h                    1    hc2
 h                    1    hc3      2    hch3
 c                    1    cc4      2    cch4     3    dih4     0
 c                    4    cc5      1    ccc5     3    dih5     0
 h                    5    hc6      4    hcc6     1    dih6     0
 h                    5    hc7      4    hcc7     1    dih7     0
 o                    4    oc8      1    occ8     3    dih8     0
 h                    8    ho9      1    hoc9     3    dih9     0
       Variables:
  hc2                   1.09218                  
  hc3                   1.09316                  
  hch3                119.435                    
  cc4                   1.46884                  
  cch4                120.811                    
  dih4               -177.793                    
  cc5                   1.49036                  
  ccc5                 69.                       
  dih5                 40.                       
  hc6                   1.09655                  
  hcc6                119.105                    
  dih6                130.                       
  hc7                   1.1                      
  hcc7                 90.                       
  dih7                -85.                       
  oc8                   1.43625                  
  occ8                140.                       
  dih8                150.                       
  ho9                   1.                       
  hoc9                110.                       
  dih9                  0.                       
 
 NAtoms=      9 NQM=      9 NQMF=      0 NMic=      0 NMicF=      0 NTot=      9.
 --------------------------------
 cyclopropanol w/ radical at OH C
 --------------------------------
 Symbolic Z-matrix:
 Charge =  0 Multiplicity = 2
 c
 h                    1    hc2
 h                    1    hc3      2    hch3
 c                    1    cc4      2    cch4     3    dih4     0
 c                    4    cc5      1    ccc5     3    dih5     0
 h                    5    hc6      4    hcc6     1    dih6     0
 h                    5    hc7      4    hcc7     1    dih7     0
 o                    4    oc8      1    occ8     3    dih8     0
 h                    8    ho9      1    hoc9     3    dih9     0
       Variables:
  hc2                   1.09218                  
  hc3                   1.09316                  
  hch3                119.435                    
  cc4                   1.46884                  
  cch4                120.811                    
  dih4               -177.793                    
  cc5                   1.49036                  
  ccc5                 69.                       
  dih5                 40.                       
  hc6                   1.09655                  
  hcc6                119.105                    
  dih6                130.                       
  hc7                   1.8                      
  hcc7                 40.                       
  dih7                -85.                       
  oc8                   1.43625                  
  occ8                140.                       
  dih8                150.                       
  ho9                   1.                       
  hoc9                110.                       
  dih9                  0.                       
 
 NAtoms=      9 NQM=      9 NQMF=      0 NMic=      0 NMicF=      0 NTot=      9.
 Iteration  1 RMS(Cart)=  0.06859060 RMS(Int)=  0.14882189
 Iteration  2 RMS(Cart)=  0.06617262 RMS(Int)=  0.06505747
 Iteration  3 RMS(Cart)=  0.04398627 RMS(Int)=  0.02803595
 Iteration  4 RMS(Cart)=  0.00649617 RMS(Int)=  0.02700728
 Iteration  5 RMS(Cart)=  0.00027168 RMS(Int)=  0.02700605
 Iteration  6 RMS(Cart)=  0.00001205 RMS(Int)=  0.02700604
 Iteration  7 RMS(Cart)=  0.00000082 RMS(Int)=  0.02700604
                    Isotopes and Nuclear Properties:
 (Nuclear quadrupole moments (NQMom) in fm**2, nuclear magnetic moments (NMagM)
  in nuclear magnetons)

  Atom         1           2           3           4           5           6           7           8           9
 IAtWgt=          12           1           1          12          12           1           1          16           1
 AtmWgt=  12.0000000   1.0078250   1.0078250  12.0000000  12.0000000   1.0078250   1.0078250  15.9949146   1.0078250
 NucSpn=           0           1           1           0           0           1           1           0           1
 AtZEff=   0.0000000   0.0000000   0.0000000   0.0000000   0.0000000   0.0000000   0.0000000   0.0000000   0.0000000
 NQMom=    0.0000000   0.0000000   0.0000000   0.0000000   0.0000000   0.0000000   0.0000000   0.0000000   0.0000000
 NMagM=    0.0000000   2.7928460   2.7928460   0.0000000   0.0000000   2.7928460   2.7928460   0.0000000   2.7928460
 Leave Link  101 at Fri Oct 23 16:58:45 2009, MaxMem= 1258291200 cpu:       1.6
 (Enter /home/g09/l103.exe)

 GradGradGradGradGradGradGradGradGradGradGradGradGradGradGradGradGradGrad
 Berny optimization.
 Initialization pass.
                           ----------------------------
                           !    Initial Parameters    !
                           ! (Angstroms and Degrees)  !
 --------------------------                            --------------------------
 ! Name  Definition        TS        Reactant  Product Derivative Info.         !
 --------------------------------------------------------------------------------
 ! R1    R(1,2)             1.0922    1.0922    1.0922 calculate D2E/DX2 analyti!
 ! R2    R(1,3)             1.0943    1.0932    1.0932 calculate D2E/DX2 analyti!
 ! R3    R(1,4)             1.4691    1.4688    1.4688 calculate D2E/DX2 analyti!
 ! R4    R(1,5)             1.6741    1.6762    1.6762 calculate D2E/DX2 analyti!
 ! R5    R(4,5)             1.4702    1.4904    1.4904 calculate D2E/DX2 analyti!
 ! R6    R(4,8)             1.4362    1.4362    1.4362 calculate D2E/DX2 analyti!
 ! R7    R(5,6)             1.0966    1.0966    1.0966 calculate D2E/DX2 analyti!
 ! R8    R(5,7)             1.4603    1.1       1.8    calculate D2E/DX2 analyti!
 ! R9    R(8,9)             1.0       1.0       1.0    calculate D2E/DX2 analyti!
 ! R10   R(3,5)             1.7273    1.7303    1.7303 calculate D2E/DX2 analyti!
 ! R11   R(4,7)             1.5216    1.8523    1.1624 calculate D2E/DX2 analyti!
 ! A1    A(2,1,3)         119.0697  119.435   119.435  calculate D2E/DX2 analyti!
 ! A2    A(2,1,4)         121.8373  120.811   120.811  calculate D2E/DX2 analyti!
 ! A3    A(2,1,5)         148.9683  148.1086  148.1086 calculate D2E/DX2 analyti!
 ! A4    A(3,1,4)         119.0487  119.7174  119.7174 calculate D2E/DX2 analyti!
 ! A5    A(3,1,5)          73.8921   73.9902   73.9902 calculate D2E/DX2 analyti!
 ! A6    A(1,4,8)         140.6247  140.0     140.0    calculate D2E/DX2 analyti!
 ! A7    A(5,4,8)         118.5732  118.6704  118.6704 calculate D2E/DX2 analyti!
 ! A8    A(1,5,6)         138.5908  137.6624  137.6624 calculate D2E/DX2 analyti!
 ! A9    A(1,5,7)          72.5524   85.9113   60.8971 calculate D2E/DX2 analyti!
 ! A10   A(4,5,6)         119.0893  119.105   119.105  calculate D2E/DX2 analyti!
 ! A11   A(4,5,7)          62.5608   90.0      40.0    calculate D2E/DX2 analyti!
 ! A12   A(6,5,7)         146.3986  135.702   146.3737 calculate D2E/DX2 analyti!
 ! A13   A(4,8,9)          93.8771   93.8771   93.8771 calculate D2E/DX2 analyti!
 ! A14   A(1,4,7)          77.0146   70.3268   83.3756 calculate D2E/DX2 analyti!
 ! A15   A(5,4,7)          58.4016   36.4302   84.4966 calculate D2E/DX2 analyti!
 ! A16   A(7,4,8)         141.6795  140.9213  134.4407 calculate D2E/DX2 analyti!
 ! D1    D(2,1,4,8)       -32.4629  -32.2132  -32.2132 calculate D2E/DX2 analyti!
 ! D2    D(3,1,4,8)       149.9821  150.0     150.0    calculate D2E/DX2 analyti!
 ! D3    D(2,1,5,6)        -0.8056   -1.3217   -1.3217 calculate D2E/DX2 analyti!
 ! D4    D(2,1,5,7)       163.6875 -172.0527  142.1943 calculate D2E/DX2 analyti!
 ! D5    D(3,1,5,6)       119.2609  119.1165  119.1165 calculate D2E/DX2 analyti!
 ! D6    D(3,1,5,7)       -76.246   -51.6146  -97.3676 calculate D2E/DX2 analyti!
 ! D7    D(8,4,5,6)        -6.1807   -6.4942   -6.4942 calculate D2E/DX2 analyti!
 ! D8    D(8,4,5,7)       135.548   138.5058  138.5058 calculate D2E/DX2 analyti!
 ! D9    D(1,4,8,9)      -144.007  -143.8351 -143.8351 calculate D2E/DX2 analyti!
 ! D10   D(5,4,8,9)       -52.107   -52.9048  -52.9048 calculate D2E/DX2 analyti!
 ! D11   D(2,1,4,7)       156.3614  178.8652  131.1599 calculate D2E/DX2 analyti!
 ! D12   D(3,1,4,7)       -21.1937    1.0784  -46.6269 calculate D2E/DX2 analyti!
 ! D13   D(7,4,5,6)      -141.7287 -145.0    -145.0    calculate D2E/DX2 analyti!
 ! D14   D(7,4,8,9)        22.043   -14.286    59.6239 calculate D2E/DX2 analyti!
 --------------------------------------------------------------------------------
 Trust Radius=3.00D-01 FncErr=1.00D-07 GrdErr=1.00D-07
 Number of steps in this run=  50 maximum allowed number of steps= 100.
 Search for a saddle point of order  1.
 GradGradGradGradGradGradGradGradGradGradGradGradGradGradGradGradGradGrad

 Leave Link  103 at Fri Oct 23 16:58:45 2009, MaxMem= 1258291200 cpu:       0.1
 (Enter /home/g09/l202.exe)
                          Input orientation:                          
 ---------------------------------------------------------------------
 Center     Atomic      Atomic             Coordinates (Angstroms)
 Number     Number       Type             X           Y           Z
 ---------------------------------------------------------------------
      1          6           0        0.044647   -0.039435   -0.020906
      2          1           0        0.033924    0.064025    1.066305
      3          1           0        1.004598   -0.144677   -0.535526
      4          6           0       -1.189390    0.011628   -0.816455
      5          6           0       -0.254906   -0.975989   -1.375772
      6          1           0       -0.622081   -1.980897   -1.616130
      7          1           0       -0.117943    0.407841   -1.821619
      8          8           0       -2.581254   -0.331886   -0.729727
      9          1           0       -2.644628   -0.600479   -1.690893
 ---------------------------------------------------------------------
                    Distance matrix (angstroms):
                    1          2          3          4          5
     1  C    0.000000
     2  H    1.092175   0.000000
     3  H    1.094265   1.884575   0.000000
     4  C    1.469133   2.245891   2.217416   0.000000
     5  C    1.674075   2.669979   1.727264   1.470198   0.000000
     6  H    2.599719   3.436205   2.680576   2.220693   1.096553
     7  H    1.862541   2.912280   1.794271   1.521624   1.460317
     8  O    2.735564   3.197129   3.595983   1.436248   2.498827
     9  H    3.214939   3.901071   3.854799   1.804726   2.439483
                    6          7          8          9
     6  H    0.000000
     7  H    2.449990   0.000000
     8  O    2.709854   2.794160   0.000000
     9  H    2.449865   2.723590   1.000000   0.000000
 Symmetry turned off by external request.
 Stoichiometry    C3H5O(2)
 Framework group  C1[X(C3H5O)]
 Deg. of freedom    21
 Full point group                 C1      NOp   1
 Rotational constants (GHZ):     18.2876485      6.8414663      5.4588465
 Leave Link  202 at Fri Oct 23 16:58:45 2009, MaxMem= 1258291200 cpu:       0.0
 (Enter /home/g09/l301.exe)
 Standard basis: Aug-CC-pVDZ (5D, 7F)
 Ernie: Thresh=  0.10000D-02 Tol=  0.10000D-05 Strict=F.
 Ernie:  8 primitive shells out of 135 were deleted.
 Integral buffers will be    131072 words long.
 Raffenetti 2 integral format.
 Two-electron integral symmetry is turned off.
   137 basis functions,   227 primitive gaussians,   145 cartesian basis functions
    16 alpha electrons       15 beta electrons
       nuclear repulsion energy       113.5023710428 Hartrees.
 IExCor=    0 DFT=F Ex=HF Corr=None ExCW=0 ScaHFX=  1.000000
 ScaDFX=  1.000000  1.000000  1.000000  1.000000 ScalE2=  1.000000  1.000000
 IRadAn=      0 IRanWt=     -1 IRanGd=            0 ICorTp=0
 NAtoms=    9 NActive=    9 NUniq=    9 SFac= 7.50D-01 NAtFMM=   80 NAOKFM=F Big=F
 Leave Link  301 at Fri Oct 23 16:58:46 2009, MaxMem= 1258291200 cpu:       0.8
 (Enter /home/g09/l302.exe)
 NPDir=0 NMtPBC=     1 NCelOv=     1 NCel=       1 NClECP=     1 NCelD=      1
         NCelK=      1 NCelE2=     1 NClLst=     1 CellRange=     0.0.
 One-electron integrals computed using PRISM.
 NBasis=   137 RedAO= T  NBF=   137
 NBsUse=   137 1.00D-06 NBFU=   137
 Leave Link  302 at Fri Oct 23 16:58:46 2009, MaxMem= 1258291200 cpu:       1.8
 (Enter /home/g09/l303.exe)
 DipDrv:  MaxL=1.
 Leave Link  303 at Fri Oct 23 16:58:46 2009, MaxMem= 1258291200 cpu:       0.7
 (Enter /home/g09/l401.exe)
 Harris functional with IExCor=  205 diagonalized for initial guess.
 ExpMin= 2.97D-02 ExpMax= 1.17D+04 ExpMxC= 4.01D+02 IAcc=3 IRadAn=         0 AccDes= 0.00D+00
 HarFok:  IExCor=  205 AccDes= 0.00D+00 IRadAn=         0 IDoV= 1
 ScaDFX=  1.000000  1.000000  1.000000  1.000000
 FoFCou: FMM=F IPFlag=           0 FMFlag=      100000 FMFlg1=           0
         NFxFlg=           0 DoJE=T BraDBF=F KetDBF=T FulRan=T
         Omega=  0.000000  0.000000  1.000000  0.000000  0.000000 ICntrl=     500 IOpCl=  0
         NMat0=    1 NMatS0=    1 NMatT0=    0 NMatD0=    1 NMtDS0=    0 NMtDT0=    0
         I1Cent=           4 NGrid=           0.
 Symmetry not used in FoFCou.
 Harris En= -191.317506508622    
 Initial guess <Sx>= 0.0000 <Sy>= 0.0000 <Sz>= 0.5000 <S**2>= 0.7500 S= 0.5000
 Leave Link  401 at Fri Oct 23 16:58:47 2009, MaxMem= 1258291200 cpu:       3.4
 (Enter /home/g09/l502.exe)
 UHF open shell SCF:
 Requested convergence on RMS density matrix=1.00D-08 within  64 cycles.
 Requested convergence on MAX density matrix=1.00D-06.
 Requested convergence on             energy=1.00D-06.
 No special actions if energy rises.
 Using DIIS extrapolation, IDIIS=  1040.
 Two-electron integral symmetry not used.
 Keep R1 and R2 ints in memory in canonical form, NReq=113679487.
 IEnd=       70661 IEndB=       70661 NGot=  1258291200 MDV=  1146193096
 LenX=  1146193096 LenY=  1146171630
 Symmetry not used in FoFDir.
 MinBra= 0 MaxBra= 2 Meth= 1.
 IRaf=       0 NMat=   1 IRICut=       1 DoRegI=T DoRafI=F ISym2E= 0 JSym2E=0.

 Cycle   1  Pass 1  IDiag  1:
 E= -190.871042162262    
 DIIS: error= 1.93D-02 at cycle   1 NSaved=   1.
 NSaved= 1 IEnMin= 1 EnMin= -190.871042162262     IErMin= 1 ErrMin= 1.93D-02
 ErrMax= 1.93D-02 EMaxC= 1.00D-01 BMatC= 7.99D-01 BMatP= 7.99D-01
 IDIUse=3 WtCom= 8.07D-01 WtEn= 1.93D-01
 Coeff-Com:  0.100D+01
 Coeff-En:   0.100D+01
 Coeff:      0.100D+01
 Gap=     0.445 Goal=   None    Shift=    0.000
 Gap=     0.446 Goal=   None    Shift=    0.000
 GapD=    0.445 DampG=2.000 DampE=0.500 DampFc=1.0000 IDamp=-1.
 RMSDP=9.84D-03 MaxDP=3.11D-01              OVMax= 1.47D-01

 Cycle   2  Pass 1  IDiag  1:
 E= -191.006188508819     Delta-E=       -0.135146346557 Rises=F Damp=F
 DIIS: error= 1.04D-02 at cycle   2 NSaved=   2.
 NSaved= 2 IEnMin= 2 EnMin= -191.006188508819     IErMin= 2 ErrMin= 1.04D-02
 ErrMax= 1.04D-02 EMaxC= 1.00D-01 BMatC= 1.30D-01 BMatP= 7.99D-01
 IDIUse=3 WtCom= 8.96D-01 WtEn= 1.04D-01
 Coeff-Com:  0.239D+00 0.761D+00
 Coeff-En:   0.000D+00 0.100D+01
 Coeff:      0.214D+00 0.786D+00
 Gap=     0.312 Goal=   None    Shift=    0.000
 Gap=     0.390 Goal=   None    Shift=    0.000
 RMSDP=2.13D-03 MaxDP=1.03D-01 DE=-1.35D-01 OVMax= 5.15D-02

 Cycle   3  Pass 1  IDiag  1:
 E= -191.037377642760     Delta-E=       -0.031189133941 Rises=F Damp=F
 DIIS: error= 2.20D-03 at cycle   3 NSaved=   3.
 NSaved= 3 IEnMin= 3 EnMin= -191.037377642760     IErMin= 3 ErrMin= 2.20D-03
 ErrMax= 2.20D-03 EMaxC= 1.00D-01 BMatC= 7.20D-03 BMatP= 1.30D-01
 IDIUse=3 WtCom= 9.78D-01 WtEn= 2.20D-02
 Coeff-Com: -0.368D-01 0.107D+00 0.930D+00
 Coeff-En:   0.000D+00 0.000D+00 0.100D+01
 Coeff:     -0.360D-01 0.104D+00 0.932D+00
 Gap=     0.302 Goal=   None    Shift=    0.000
 Gap=     0.376 Goal=   None    Shift=    0.000
 RMSDP=7.00D-04 MaxDP=1.73D-02 DE=-3.12D-02 OVMax= 2.14D-02

 Cycle   4  Pass 1  IDiag  1:
 E= -191.040380512345     Delta-E=       -0.003002869585 Rises=F Damp=F
 DIIS: error= 1.46D-03 at cycle   4 NSaved=   4.
 NSaved= 4 IEnMin= 4 EnMin= -191.040380512345     IErMin= 4 ErrMin= 1.46D-03
 ErrMax= 1.46D-03 EMaxC= 1.00D-01 BMatC= 9.26D-04 BMatP= 7.20D-03
 IDIUse=3 WtCom= 9.85D-01 WtEn= 1.46D-02
 Coeff-Com: -0.114D-02-0.363D-01-0.134D+00 0.117D+01
 Coeff-En:   0.000D+00 0.000D+00 0.000D+00 0.100D+01
 Coeff:     -0.112D-02-0.358D-01-0.132D+00 0.117D+01
 Gap=     0.303 Goal=   None    Shift=    0.000
 Gap=     0.375 Goal=   None    Shift=    0.000
 RMSDP=4.84D-04 MaxDP=2.21D-02 DE=-3.00D-03 OVMax= 1.91D-02

 Cycle   5  Pass 1  IDiag  1:
 E= -191.041468914733     Delta-E=       -0.001088402387 Rises=F Damp=F
 DIIS: error= 8.89D-04 at cycle   5 NSaved=   5.
 NSaved= 5 IEnMin= 5 EnMin= -191.041468914733     IErMin= 5 ErrMin= 8.89D-04
 ErrMax= 8.89D-04 EMaxC= 1.00D-01 BMatC= 4.82D-04 BMatP= 9.26D-04
 IDIUse=3 WtCom= 9.91D-01 WtEn= 8.89D-03
 Coeff-Com:  0.100D-01-0.359D-01-0.291D+00 0.160D+00 0.116D+01
 Coeff-En:   0.000D+00 0.000D+00 0.000D+00 0.000D+00 0.100D+01
 Coeff:      0.996D-02-0.355D-01-0.289D+00 0.159D+00 0.116D+01
 Gap=     0.308 Goal=   None    Shift=    0.000
 Gap=     0.377 Goal=   None    Shift=    0.000
 RMSDP=4.66D-04 MaxDP=2.41D-02 DE=-1.09D-03 OVMax= 1.92D-02

 Cycle   6  Pass 1  IDiag  1:
 E= -191.042194210263     Delta-E=       -0.000725295531 Rises=F Damp=F
 DIIS: error= 5.97D-04 at cycle   6 NSaved=   6.
 NSaved= 6 IEnMin= 6 EnMin= -191.042194210263     IErMin= 6 ErrMin= 5.97D-04
 ErrMax= 5.97D-04 EMaxC= 1.00D-01 BMatC= 1.94D-04 BMatP= 4.82D-04
 IDIUse=3 WtCom= 9.94D-01 WtEn= 5.97D-03
 Coeff-Com: -0.202D-02 0.264D-01 0.154D+00-0.596D+00-0.302D+00 0.172D+01
 Coeff-En:   0.000D+00 0.000D+00 0.000D+00 0.000D+00 0.000D+00 0.100D+01
 Coeff:     -0.201D-02 0.262D-01 0.153D+00-0.592D+00-0.301D+00 0.172D+01
 Gap=     0.311 Goal=   None    Shift=    0.000
 Gap=     0.377 Goal=   None    Shift=    0.000
 RMSDP=5.00D-04 MaxDP=2.51D-02 DE=-7.25D-04 OVMax= 2.13D-02

 Cycle   7  Pass 1  IDiag  1:
 E= -191.042674719705     Delta-E=       -0.000480509441 Rises=F Damp=F
 DIIS: error= 2.96D-04 at cycle   7 NSaved=   7.
 NSaved= 7 IEnMin= 7 EnMin= -191.042674719705     IErMin= 7 ErrMin= 2.96D-04
 ErrMax= 2.96D-04 EMaxC= 1.00D-01 BMatC= 5.39D-05 BMatP= 1.94D-04
 IDIUse=3 WtCom= 9.97D-01 WtEn= 2.96D-03
 Coeff-Com: -0.301D-02 0.791D-02 0.728D-01 0.700D-01-0.312D+00-0.429D+00
 Coeff-Com:  0.159D+01
 Coeff-En:   0.000D+00 0.000D+00 0.000D+00 0.000D+00 0.000D+00 0.000D+00
 Coeff-En:   0.100D+01
 Coeff:     -0.300D-02 0.789D-02 0.726D-01 0.698D-01-0.311D+00-0.427D+00
 Coeff:      0.159D+01
 Gap=     0.312 Goal=   None    Shift=    0.000
 Gap=     0.377 Goal=   None    Shift=    0.000
 RMSDP=2.92D-04 MaxDP=1.38D-02 DE=-4.81D-04 OVMax= 1.38D-02

 Cycle   8  Pass 1  IDiag  1:
 E= -191.042823039051     Delta-E=       -0.000148319346 Rises=F Damp=F
 DIIS: error= 1.46D-04 at cycle   8 NSaved=   8.
 NSaved= 8 IEnMin= 8 EnMin= -191.042823039051     IErMin= 8 ErrMin= 1.46D-04
 ErrMax= 1.46D-04 EMaxC= 1.00D-01 BMatC= 1.72D-05 BMatP= 5.39D-05
 IDIUse=3 WtCom= 9.99D-01 WtEn= 1.46D-03
 Coeff-Com:  0.770D-03-0.581D-02-0.406D-01 0.958D-01 0.110D+00-0.248D+00
 Coeff-Com: -0.258D+00 0.134D+01
 Coeff-En:   0.000D+00 0.000D+00 0.000D+00 0.000D+00 0.000D+00 0.000D+00
 Coeff-En:   0.000D+00 0.100D+01
 Coeff:      0.768D-03-0.580D-02-0.406D-01 0.956D-01 0.110D+00-0.247D+00
 Coeff:     -0.257D+00 0.134D+01
 Gap=     0.312 Goal=   None    Shift=    0.000
 Gap=     0.377 Goal=   None    Shift=    0.000
 RMSDP=1.09D-04 MaxDP=4.26D-03 DE=-1.48D-04 OVMax= 5.66D-03

 Cycle   9  Pass 1  IDiag  1:
 E= -191.042862047604     Delta-E=       -0.000039008553 Rises=F Damp=F
 DIIS: error= 1.03D-04 at cycle   9 NSaved=   9.
 NSaved= 9 IEnMin= 9 EnMin= -191.042862047604     IErMin= 9 ErrMin= 1.03D-04
 ErrMax= 1.03D-04 EMaxC= 1.00D-01 BMatC= 9.15D-06 BMatP= 1.72D-05
 IDIUse=3 WtCom= 9.99D-01 WtEn= 1.03D-03
 Coeff-Com:  0.121D-02-0.253D-02-0.269D-01-0.493D-01 0.118D+00 0.199D+00
 Coeff-Com: -0.614D+00-0.259D+00 0.163D+01
 Coeff-En:   0.000D+00 0.000D+00 0.000D+00 0.000D+00 0.000D+00 0.000D+00
 Coeff-En:   0.000D+00 0.000D+00 0.100D+01
 Coeff:      0.121D-02-0.252D-02-0.269D-01-0.492D-01 0.118D+00 0.199D+00
 Coeff:     -0.613D+00-0.259D+00 0.163D+01
 Gap=     0.312 Goal=   None    Shift=    0.000
 Gap=     0.377 Goal=   None    Shift=    0.000
 RMSDP=1.14D-04 MaxDP=2.68D-03 DE=-3.90D-05 OVMax= 5.74D-03

 Cycle  10  Pass 1  IDiag  1:
 E= -191.042891339269     Delta-E=       -0.000029291665 Rises=F Damp=F
 DIIS: error= 7.43D-05 at cycle  10 NSaved=  10.
 NSaved=10 IEnMin=10 EnMin= -191.042891339269     IErMin=10 ErrMin= 7.43D-05
 ErrMax= 7.43D-05 EMaxC= 1.00D-01 BMatC= 4.33D-06 BMatP= 9.15D-06
 IDIUse=1 WtCom= 1.00D+00 WtEn= 0.00D+00
 Coeff-Com: -0.557D-03 0.346D-02 0.250D-01-0.441D-01-0.728D-01 0.804D-01
 Coeff-Com:  0.292D+00-0.756D+00-0.115D+00 0.159D+01
 Coeff:     -0.557D-03 0.346D-02 0.250D-01-0.441D-01-0.728D-01 0.804D-01
 Coeff:      0.292D+00-0.756D+00-0.115D+00 0.159D+01
 Gap=     0.313 Goal=   None    Shift=    0.000
 Gap=     0.377 Goal=   None    Shift=    0.000
 RMSDP=9.30D-05 MaxDP=2.24D-03 DE=-2.93D-05 OVMax= 5.03D-03

 Cycle  11  Pass 1  IDiag  1:
 E= -191.042906615761     Delta-E=       -0.000015276492 Rises=F Damp=F
 DIIS: error= 4.67D-05 at cycle  11 NSaved=  11.
 NSaved=11 IEnMin=11 EnMin= -191.042906615761     IErMin=11 ErrMin= 4.67D-05
 ErrMax= 4.67D-05 EMaxC= 1.00D-01 BMatC= 1.64D-06 BMatP= 4.33D-06
 IDIUse=1 WtCom= 1.00D+00 WtEn= 0.00D+00
 Coeff-Com: -0.510D-03 0.124D-02 0.111D-01 0.257D-01-0.557D-01-0.103D+00
 Coeff-Com:  0.299D+00 0.133D+00-0.709D+00-0.303D+00 0.170D+01
 Coeff:     -0.510D-03 0.124D-02 0.111D-01 0.257D-01-0.557D-01-0.103D+00
 Coeff:      0.299D+00 0.133D+00-0.709D+00-0.303D+00 0.170D+01
 Gap=     0.313 Goal=   None    Shift=    0.000
 Gap=     0.377 Goal=   None    Shift=    0.000
 RMSDP=7.89D-05 MaxDP=1.89D-03 DE=-1.53D-05 OVMax= 4.55D-03

 Cycle  12  Pass 1  IDiag  1:
 E= -191.042913312375     Delta-E=       -0.000006696614 Rises=F Damp=F
 DIIS: error= 2.35D-05 at cycle  12 NSaved=  12.
 NSaved=12 IEnMin=12 EnMin= -191.042913312375     IErMin=12 ErrMin= 2.35D-05
 ErrMax= 2.35D-05 EMaxC= 1.00D-01 BMatC= 4.67D-07 BMatP= 1.64D-06
 IDIUse=1 WtCom= 1.00D+00 WtEn= 0.00D+00
 Coeff-Com:  0.219D-03-0.105D-02-0.847D-02 0.654D-02 0.258D-01-0.312D-03
 Coeff-Com: -0.134D+00 0.198D+00 0.197D+00-0.488D+00-0.205D+00 0.141D+01
 Coeff:      0.219D-03-0.105D-02-0.847D-02 0.654D-02 0.258D-01-0.312D-03
 Coeff:     -0.134D+00 0.198D+00 0.197D+00-0.488D+00-0.205D+00 0.141D+01
 Gap=     0.313 Goal=   None    Shift=    0.000
 Gap=     0.377 Goal=   None    Shift=    0.000
 RMSDP=2.75D-05 MaxDP=6.61D-04 DE=-6.70D-06 OVMax= 1.71D-03

 Cycle  13  Pass 1  IDiag  1:
 E= -191.042914554431     Delta-E=       -0.000001242056 Rises=F Damp=F
 DIIS: error= 1.61D-05 at cycle  13 NSaved=  13.
 NSaved=13 IEnMin=13 EnMin= -191.042914554431     IErMin=13 ErrMin= 1.61D-05
 ErrMax= 1.61D-05 EMaxC= 1.00D-01 BMatC= 1.77D-07 BMatP= 4.67D-07
 IDIUse=1 WtCom= 1.00D+00 WtEn= 0.00D+00
 Coeff-Com:  0.147D-03-0.338D-03-0.296D-02-0.124D-01 0.182D-01 0.461D-01
 Coeff-Com: -0.113D+00-0.558D-01 0.257D+00 0.992D-01-0.571D+00-0.529D-01
 Coeff-Com:  0.139D+01
 Coeff:      0.147D-03-0.338D-03-0.296D-02-0.124D-01 0.182D-01 0.461D-01
 Coeff:     -0.113D+00-0.558D-01 0.257D+00 0.992D-01-0.571D+00-0.529D-01
 Coeff:      0.139D+01
 Gap=     0.313 Goal=   None    Shift=    0.000
 Gap=     0.377 Goal=   None    Shift=    0.000
 RMSDP=1.57D-05 MaxDP=3.85D-04 DE=-1.24D-06 OVMax= 9.19D-04

 Cycle  14  Pass 1  IDiag  1:
 E= -191.042914999008     Delta-E=       -0.000000444576 Rises=F Damp=F
 DIIS: error= 9.49D-06 at cycle  14 NSaved=  14.
 NSaved=14 IEnMin=14 EnMin= -191.042914999008     IErMin=14 ErrMin= 9.49D-06
 ErrMax= 9.49D-06 EMaxC= 1.00D-01 BMatC= 6.60D-08 BMatP= 1.77D-07
 IDIUse=1 WtCom= 1.00D+00 WtEn= 0.00D+00
 Coeff-Com: -0.108D-03 0.455D-03 0.381D-02 0.402D-03-0.131D-01-0.109D-01
 Coeff-Com:  0.727D-01-0.405D-01-0.152D+00 0.138D+00 0.254D+00-0.502D+00
 Coeff-Com: -0.442D+00 0.169D+01
 Coeff:     -0.108D-03 0.455D-03 0.381D-02 0.402D-03-0.131D-01-0.109D-01
 Coeff:      0.727D-01-0.405D-01-0.152D+00 0.138D+00 0.254D+00-0.502D+00
 Coeff:     -0.442D+00 0.169D+01
 Gap=     0.313 Goal=   None    Shift=    0.000
 Gap=     0.377 Goal=   None    Shift=    0.000
 RMSDP=9.56D-06 MaxDP=2.61D-04 DE=-4.45D-07 OVMax= 4.88D-04

 Cycle  15  Pass 1  IDiag  1:
 E= -191.042915185366     Delta-E=       -0.000000186359 Rises=F Damp=F
 DIIS: error= 5.09D-06 at cycle  15 NSaved=  15.
 NSaved=15 IEnMin=15 EnMin= -191.042915185366     IErMin=15 ErrMin= 5.09D-06
 ErrMax= 5.09D-06 EMaxC= 1.00D-01 BMatC= 2.80D-08 BMatP= 6.60D-08
 IDIUse=1 WtCom= 1.00D+00 WtEn= 0.00D+00
 Coeff-Com:  0.150D-04-0.122D-03-0.113D-02 0.280D-02 0.176D-02-0.640D-02
 Coeff-Com: -0.727D-02 0.395D-01-0.189D-02-0.847D-01 0.157D-01 0.294D+00
 Coeff-Com: -0.158D+00-0.864D+00 0.177D+01
 Coeff:      0.150D-04-0.122D-03-0.113D-02 0.280D-02 0.176D-02-0.640D-02
 Coeff:     -0.727D-02 0.395D-01-0.189D-02-0.847D-01 0.157D-01 0.294D+00
 Coeff:     -0.158D+00-0.864D+00 0.177D+01
 Gap=     0.313 Goal=   None    Shift=    0.000
 Gap=     0.377 Goal=   None    Shift=    0.000
 RMSDP=5.27D-06 MaxDP=1.49D-04 DE=-1.86D-07 OVMax= 3.02D-04

 Cycle  16  Pass 1  IDiag  1:
 E= -191.042915268711     Delta-E=       -0.000000083345 Rises=F Damp=F
 DIIS: error= 4.48D-06 at cycle  16 NSaved=  16.
 NSaved=16 IEnMin=16 EnMin= -191.042915268711     IErMin=16 ErrMin= 4.48D-06
 ErrMax= 4.48D-06 EMaxC= 1.00D-01 BMatC= 1.69D-08 BMatP= 2.80D-08
 IDIUse=1 WtCom= 1.00D+00 WtEn= 0.00D+00
 Coeff-Com:  0.159D-04 0.113D-05 0.885D-04-0.400D-02 0.259D-02 0.140D-01
 Coeff-Com: -0.200D-01-0.389D-01 0.622D-01 0.675D-01-0.136D+00-0.189D+00
 Coeff-Com:  0.404D+00 0.530D+00-0.272D+01 0.302D+01
 Coeff:      0.159D-04 0.113D-05 0.885D-04-0.400D-02 0.259D-02 0.140D-01
 Coeff:     -0.200D-01-0.389D-01 0.622D-01 0.675D-01-0.136D+00-0.189D+00
 Coeff:      0.404D+00 0.530D+00-0.272D+01 0.302D+01
 Gap=     0.313 Goal=   None    Shift=    0.000
 Gap=     0.377 Goal=   None    Shift=    0.000
 RMSDP=7.33D-06 MaxDP=2.28D-04 DE=-8.33D-08 OVMax= 4.22D-04

 Cycle  17  Pass 1  IDiag  1:
 E= -191.042915355674     Delta-E=       -0.000000086962 Rises=F Damp=F
 DIIS: error= 3.12D-06 at cycle  17 NSaved=  17.
 NSaved=17 IEnMin=17 EnMin= -191.042915355674     IErMin=17 ErrMin= 3.12D-06
 ErrMax= 3.12D-06 EMaxC= 1.00D-01 BMatC= 7.87D-09 BMatP= 1.69D-08
 IDIUse=1 WtCom= 1.00D+00 WtEn= 0.00D+00
 Coeff-Com: -0.377D-04 0.120D-03 0.958D-03 0.359D-02-0.598D-02-0.150D-01
 Coeff-Com:  0.372D-01 0.227D-01-0.950D-01-0.254D-01 0.195D+00 0.325D-01
 Coeff-Com: -0.504D+00 0.357D-02 0.244D+01-0.432D+01 0.323D+01
 Coeff:     -0.377D-04 0.120D-03 0.958D-03 0.359D-02-0.598D-02-0.150D-01
 Coeff:      0.372D-01 0.227D-01-0.950D-01-0.254D-01 0.195D+00 0.325D-01
 Coeff:     -0.504D+00 0.357D-02 0.244D+01-0.432D+01 0.323D+01
 Gap=     0.313 Goal=   None    Shift=    0.000
 Gap=     0.377 Goal=   None    Shift=    0.000
 RMSDP=9.36D-06 MaxDP=3.02D-04 DE=-8.70D-08 OVMax= 5.31D-04

 Cycle  18  Pass 1  IDiag  1:
 E= -191.042915415295     Delta-E=       -0.000000059621 Rises=F Damp=F
 DIIS: error= 1.34D-06 at cycle  18 NSaved=  18.
 NSaved=18 IEnMin=18 EnMin= -191.042915415295     IErMin=18 ErrMin= 1.34D-06
 ErrMax= 1.34D-06 EMaxC= 1.00D-01 BMatC= 1.51D-09 BMatP= 7.87D-09
 IDIUse=1 WtCom= 1.00D+00 WtEn= 0.00D+00
 Coeff-Com:  0.251D-04-0.977D-04-0.815D-03-0.127D-02 0.365D-02 0.717D-02
 Coeff-Com: -0.226D-01-0.441D-02 0.527D-01-0.111D-03-0.111D+00 0.439D-01
 Coeff-Com:  0.247D+00-0.169D+00-0.100D+01 0.235D+01-0.251D+01 0.211D+01
 Coeff:      0.251D-04-0.977D-04-0.815D-03-0.127D-02 0.365D-02 0.717D-02
 Coeff:     -0.226D-01-0.441D-02 0.527D-01-0.111D-03-0.111D+00 0.439D-01
 Coeff:      0.247D+00-0.169D+00-0.100D+01 0.235D+01-0.251D+01 0.211D+01
 Gap=     0.313 Goal=   None    Shift=    0.000
 Gap=     0.377 Goal=   None    Shift=    0.000
 RMSDP=3.94D-06 MaxDP=1.32D-04 DE=-5.96D-08 OVMax= 2.22D-04

 Cycle  19  Pass 1  IDiag  1:
 E= -191.042915423766     Delta-E=       -0.000000008471 Rises=F Damp=F
 DIIS: error= 5.54D-07 at cycle  19 NSaved=  19.
 NSaved=19 IEnMin=19 EnMin= -191.042915423766     IErMin=19 ErrMin= 5.54D-07
 ErrMax= 5.54D-07 EMaxC= 1.00D-01 BMatC= 1.91D-10 BMatP= 1.51D-09
 IDIUse=1 WtCom= 1.00D+00 WtEn= 0.00D+00
 Coeff-Com: -0.824D-05 0.371D-04 0.313D-03 0.885D-04-0.101D-02-0.164D-02
 Coeff-Com:  0.670D-02-0.135D-02-0.142D-01 0.462D-02 0.297D-01-0.295D-01
 Coeff-Com: -0.617D-01 0.104D+00 0.147D+00-0.604D+00 0.886D+00-0.120D+01
 Coeff-Com:  0.174D+01
 Coeff:     -0.824D-05 0.371D-04 0.313D-03 0.885D-04-0.101D-02-0.164D-02
 Coeff:      0.670D-02-0.135D-02-0.142D-01 0.462D-02 0.297D-01-0.295D-01
 Coeff:     -0.617D-01 0.104D+00 0.147D+00-0.604D+00 0.886D+00-0.120D+01
 Coeff:      0.174D+01
 Gap=     0.313 Goal=   None    Shift=    0.000
 Gap=     0.377 Goal=   None    Shift=    0.000
 RMSDP=8.57D-07 MaxDP=2.74D-05 DE=-8.47D-09 OVMax= 4.84D-05

 Cycle  20  Pass 1  IDiag  1:
 E= -191.042915424305     Delta-E=       -0.000000000539 Rises=F Damp=F
 DIIS: error= 1.72D-07 at cycle  20 NSaved=  20.
 NSaved=20 IEnMin=20 EnMin= -191.042915424305     IErMin=20 ErrMin= 1.72D-07
 ErrMax= 1.72D-07 EMaxC= 1.00D-01 BMatC= 2.69D-11 BMatP= 1.91D-10
 IDIUse=1 WtCom= 1.00D+00 WtEn= 0.00D+00
 Coeff-Com: -0.876D-06 0.230D-05 0.110D-04 0.172D-03-0.222D-03-0.411D-03
 Coeff-Com:  0.850D-03 0.132D-02-0.282D-02-0.163D-02 0.535D-02 0.624D-02
 Coeff-Com: -0.177D-01-0.119D-01 0.102D+00-0.139D+00 0.475D-01 0.153D+00
 Coeff-Com: -0.701D+00 0.156D+01
 Coeff:     -0.876D-06 0.230D-05 0.110D-04 0.172D-03-0.222D-03-0.411D-03
 Coeff:      0.850D-03 0.132D-02-0.282D-02-0.163D-02 0.535D-02 0.624D-02
 Coeff:     -0.177D-01-0.119D-01 0.102D+00-0.139D+00 0.475D-01 0.153D+00
 Coeff:     -0.701D+00 0.156D+01
 Gap=     0.313 Goal=   None    Shift=    0.000
 Gap=     0.377 Goal=   None    Shift=    0.000
 RMSDP=1.76D-07 MaxDP=4.32D-06 DE=-5.39D-10 OVMax= 9.79D-06

 Cycle  21  Pass 1  IDiag  1:
 E= -191.042915424351     Delta-E=       -0.000000000046 Rises=F Damp=F
 DIIS: error= 5.22D-08 at cycle  21 NSaved=  20.
 NSaved=20 IEnMin=20 EnMin= -191.042915424351     IErMin=20 ErrMin= 5.22D-08
 ErrMax= 5.22D-08 EMaxC= 1.00D-01 BMatC= 4.03D-12 BMatP= 2.69D-11
 IDIUse=1 WtCom= 1.00D+00 WtEn= 0.00D+00
 Coeff-Com: -0.144D-05-0.937D-05-0.411D-04 0.616D-04 0.174D-03-0.416D-03
 Coeff-Com: -0.384D-03 0.138D-02 0.428D-03-0.318D-02 0.345D-04 0.875D-02
 Coeff-Com: -0.448D-02-0.362D-01 0.846D-01-0.919D-01 0.721D-01 0.291D-01
 Coeff-Com: -0.551D+00 0.149D+01
 Coeff:     -0.144D-05-0.937D-05-0.411D-04 0.616D-04 0.174D-03-0.416D-03
 Coeff:     -0.384D-03 0.138D-02 0.428D-03-0.318D-02 0.345D-04 0.875D-02
 Coeff:     -0.448D-02-0.362D-01 0.846D-01-0.919D-01 0.721D-01 0.291D-01
 Coeff:     -0.551D+00 0.149D+01
 Gap=     0.313 Goal=   None    Shift=    0.000
 Gap=     0.377 Goal=   None    Shift=    0.000
 RMSDP=6.50D-08 MaxDP=1.39D-06 DE=-4.56D-11 OVMax= 3.53D-06

 Cycle  22  Pass 1  IDiag  1:
 E= -191.042915424358     Delta-E=       -0.000000000006 Rises=F Damp=F
 DIIS: error= 2.50D-08 at cycle  22 NSaved=  20.
 NSaved=20 IEnMin=20 EnMin= -191.042915424358     IErMin=20 ErrMin= 2.50D-08
 ErrMax= 2.50D-08 EMaxC= 1.00D-01 BMatC= 7.45D-13 BMatP= 4.03D-12
 IDIUse=1 WtCom= 1.00D+00 WtEn= 0.00D+00
 Coeff-Com:  0.223D-05-0.496D-05 0.153D-04-0.322D-04 0.632D-04-0.604D-04
 Coeff-Com: -0.136D-03 0.645D-04 0.547D-03-0.136D-02-0.106D-03 0.346D-02
 Coeff-Com: -0.318D-02-0.860D-02 0.258D-01-0.493D-01 0.950D-01-0.232D-01
 Coeff-Com: -0.623D+00 0.158D+01
 Coeff:      0.223D-05-0.496D-05 0.153D-04-0.322D-04 0.632D-04-0.604D-04
 Coeff:     -0.136D-03 0.645D-04 0.547D-03-0.136D-02-0.106D-03 0.346D-02
 Coeff:     -0.318D-02-0.860D-02 0.258D-01-0.493D-01 0.950D-01-0.232D-01
 Coeff:     -0.623D+00 0.158D+01
 Gap=     0.313 Goal=   None    Shift=    0.000
 Gap=     0.377 Goal=   None    Shift=    0.000
 RMSDP=2.03D-08 MaxDP=4.48D-07 DE=-6.48D-12 OVMax= 9.66D-07

 Cycle  23  Pass 1  IDiag  1:
 E= -191.042915424358     Delta-E=       -0.000000000001 Rises=F Damp=F
 DIIS: error= 1.22D-08 at cycle  23 NSaved=  20.
 NSaved=20 IEnMin=20 EnMin= -191.042915424358     IErMin=20 ErrMin= 1.22D-08
 ErrMax= 1.22D-08 EMaxC= 1.00D-01 BMatC= 1.35D-13 BMatP= 7.45D-13
 IDIUse=1 WtCom= 1.00D+00 WtEn= 0.00D+00
 Coeff-Com:  0.101D-04-0.156D-04-0.148D-04 0.297D-04 0.933D-04-0.121D-03
 Coeff-Com: -0.136D-03 0.243D-03 0.572D-03-0.928D-03-0.141D-02 0.689D-02
 Coeff-Com: -0.751D-02-0.224D-03 0.152D-01-0.579D-01 0.111D+00 0.867D-01
 Coeff-Com: -0.893D+00 0.174D+01
 Coeff:      0.101D-04-0.156D-04-0.148D-04 0.297D-04 0.933D-04-0.121D-03
 Coeff:     -0.136D-03 0.243D-03 0.572D-03-0.928D-03-0.141D-02 0.689D-02
 Coeff:     -0.751D-02-0.224D-03 0.152D-01-0.579D-01 0.111D+00 0.867D-01
 Coeff:     -0.893D+00 0.174D+01
 Gap=     0.313 Goal=   None    Shift=    0.000
 Gap=     0.377 Goal=   None    Shift=    0.000
 RMSDP=9.36D-09 MaxDP=2.26D-07 DE=-9.09D-13 OVMax= 4.82D-07

 SCF Done:  E(UHF) =  -191.042915424     A.U. after   23 cycles
             Convg  =    0.9363D-08             -V/T =  2.0018
 <Sx>= 0.0000 <Sy>= 0.0000 <Sz>= 0.5000 <S**2>= 0.8397 S= 0.5439
 <L.S>= 0.000000000000E+00
 KE= 1.906932565066D+02 PE=-6.745563443113D+02 EE= 1.793178013375D+02
 Annihilation of the first spin contaminant:
 S**2 before annihilation     0.8397,   after     0.7550
 Leave Link  502 at Fri Oct 23 16:59:01 2009, MaxMem= 1258291200 cpu:     111.0
 (Enter /home/g09/l508.exe)
 QCSCF skips out because SCF is already converged.
 Leave Link  508 at Fri Oct 23 16:59:01 2009, MaxMem= 1258291200 cpu:       0.0
 (Enter /home/g09/l801.exe)
 ExpMin= 2.97D-02 ExpMax= 1.17D+04 ExpMxC= 4.01D+02 IAcc=3 IRadAn=         5 AccDes= 0.00D+00
 HarFok:  IExCor=  205 AccDes= 0.00D+00 IRadAn=         5 IDoV=-2
 ScaDFX=  1.000000  1.000000  1.000000  1.000000
 Largest valence mixing into a core orbital is  1.18D-04
 Largest core mixing into a valence orbital is  3.77D-05
 Largest valence mixing into a core orbital is  1.34D-04
 Largest core mixing into a valence orbital is  4.06D-05
 Range of M.O.s used for correlation:     5   137
 NBasis=   137 NAE=    16 NBE=    15 NFC=     4 NFV=     0
 NROrb=    133 NOA=    12 NOB=    11 NVA=   121 NVB=   122

 **** Warning!!: The largest alpha MO coefficient is  0.31667062D+02


 **** Warning!!: The largest beta MO coefficient is  0.27314293D+02

 Leave Link  801 at Fri Oct 23 16:59:01 2009, MaxMem= 1258291200 cpu:       1.3
 (Enter /home/g09/l906.exe)
 Frozen-core derivative calculation, NFC=   4 NFV=   0.
 FulOut=F Deriv=T AODrv=T NAtomX=     9
   MMem=           0  MDisk=          12 MDiskD=          12
  W3Min=      635680 MinDsk=     1135180 NBas6D=         145
 NBas2D=       10771    NTT=       10585    LW2=     3000000
    MDV=  1257935881 MDiskM=      120300 NBas2p=       10770
 Disk-based method using ON**2 memory for 12 occupieds at a time.
 Permanent disk used for amplitudes=     5189085 words.
 Estimated scratch disk usage=    71920910 words.
 IMap=   1   2   3   4   5   6   7   8   9  10  11  12  13  14  15  16
 Actual    scratch disk usage=    64893710 words.
 JobTyp=2 Pass  1:  I=   5 to  16 NPSUse=  8 ParTrn=T ParDer=T DoDerP=T.
 (rs|ai) integrals will be sorted in core.
 IMap=   1   2   3   4   5   6   7   8   9  10  11  12  13  14  15
 Actual    scratch disk usage=    64893710 words.
 JobTyp=3 Pass  1:  I=   5 to  15 NPSUse=  8 ParTrn=T ParDer=T DoDerP=T.
 (rs|ai) integrals will be sorted in core.
 Spin components of T(2) and E(2):
     alpha-alpha T2 =       0.3243854573D-01 E2=     -0.8900189600D-01
     alpha-beta  T2 =       0.1656915016D+00 E2=     -0.4722230732D+00
     beta-beta   T2 =       0.2833967229D-01 E2=     -0.7721558212D-01
 The integrals were generated   2 times.
 (S**2,0)=  0.83969D+00           (S**2,1)=  0.80806D+00
 E(PUHF)=      -0.19105096829D+03        E(PMP2)=      -0.19168803405D+03
 ANorm=    0.1107460934D+01
 E2 =    -0.6384405514D+00 EUMP2 =    -0.19168135597571D+03
 Leave Link  906 at Fri Oct 23 17:01:31 2009, MaxMem= 1258291200 cpu:    1191.4
 (Enter /home/g09/l1101.exe)
 Using compressed Sx but separate Hx and Fx, NAtomX=     9.
 Will process  10 centers per pass.
 Leave Link 1101 at Fri Oct 23 17:01:31 2009, MaxMem= 1258291200 cpu:       2.2
 (Enter /home/g09/l1102.exe)
 Leave Link 1102 at Fri Oct 23 17:01:31 2009, MaxMem= 1258291200 cpu:       0.3
 (Enter /home/g09/l1110.exe)
 Forming Gx(P) for the SCF density, NAtomX=     9.
 Integral derivatives from FoFDir/FoFCou, PRISM(SPDF).
 Do as many integral derivatives as possible in FoFDir.
 G2DrvN: MDV=    1258291024.
 G2DrvN: will do    10 centers at a time, making    1 passes doing MaxLOS=2.
 Calling FoFCou, ICntrl=  3107 FMM=F I1Cent=   0 AccDes= 0.00D+00.
 FoFCou: FMM=F IPFlag=           0 FMFlag=      100000 FMFlg1=           0
         NFxFlg=           0 DoJE=F BraDBF=F KetDBF=F FulRan=T
         Omega=  0.000000  0.000000  1.000000  0.000000  0.000000 ICntrl=    3107 IOpCl=  1
         NMat0=    1 NMatS0=    1 NMatT0=    0 NMatD0=    1 NMtDS0=    0 NMtDT0=    0
         I1Cent=           0 NGrid=           0.
 Symmetry not used in FoFCou.
 FoFDir/FoFCou used for L=0 through L=2.
 End of G2Drv Frequency-dependent properties file   721 does not exist.
 End of G2Drv Frequency-dependent properties file   722 does not exist.
 Leave Link 1110 at Fri Oct 23 17:01:38 2009, MaxMem= 1258291200 cpu:      51.9
 (Enter /home/g09/l1002.exe)
 Minotr:  UHF open shell wavefunction.
          IDoAtm=111111111
          Frozen-core window.
          Direct CPHF calculation.
          Differentiating once with respect to electric field.
                with respect to dipole field.
          Differentiating once with respect to nuclear coordinates.
          Requested convergence is 1.0D-08 RMS, and 1.0D-07 maximum.
          Secondary convergence is 1.0D-12 RMS, and 1.0D-12 maximum.
          NewPWx=T KeepS1=T KeepF1=T KeepIn=T MapXYZ=F SortEE=F KeepMc=T.
          MDV=    1258291106 using IRadAn=       2.
          Keep R1 and R2 ints in memory in canonical form, NReq=112874111.
 Symmetry not used in FoFDir.
 MinBra= 0 MaxBra= 2 Meth= 1.
 IRaf=       0 NMat=   1 IRICut=       1 DoRegI=T DoRafI=F ISym2E= 0 JSym2E=0.
          Solving linear equations simultaneously, MaxMat=       0.
          There are    30 degrees of freedom in the 1st order CPHF.  IDoFFX=5.
     27 vectors produced by pass  0 Test12= 1.26D-14 3.33D-09 XBig12= 3.09D+01 1.08D+00.
 AX will form    27 AO Fock derivatives at one time.
     27 vectors produced by pass  1 Test12= 1.26D-14 3.33D-09 XBig12= 2.84D+00 3.49D-01.
     27 vectors produced by pass  2 Test12= 1.26D-14 3.33D-09 XBig12= 1.06D-01 5.73D-02.
     27 vectors produced by pass  3 Test12= 1.26D-14 3.33D-09 XBig12= 3.09D-03 7.57D-03.
     27 vectors produced by pass  4 Test12= 1.26D-14 3.33D-09 XBig12= 6.97D-05 1.11D-03.
     27 vectors produced by pass  5 Test12= 1.26D-14 3.33D-09 XBig12= 1.09D-06 1.21D-04.
     27 vectors produced by pass  6 Test12= 1.26D-14 3.33D-09 XBig12= 1.70D-08 1.69D-05.
     27 vectors produced by pass  7 Test12= 1.26D-14 3.33D-09 XBig12= 2.43D-10 1.74D-06.
      9 vectors produced by pass  8 Test12= 1.26D-14 3.33D-09 XBig12= 3.51D-12 2.07D-07.
      3 vectors produced by pass  9 Test12= 1.26D-14 3.33D-09 XBig12= 4.36D-14 2.11D-08.
 Inverted reduced A of dimension   228 with in-core refinement.
 FullF1:  Do perturbations    1 to    30.
 Saving first derivative matrices.
 End of Minotr Frequency-dependent properties file   721 does not exist.
 End of Minotr Frequency-dependent properties file   722 does not exist.
 Leave Link 1002 at Fri Oct 23 17:01:52 2009, MaxMem= 1258291200 cpu:     108.6
 (Enter /home/g09/l811.exe)
 MDV=  1258291200.
 Form MO integral derivatives with frozen-active canonical formalism.
 MOERI=1 MOERIx=1 NAtoms=     9 NAtomX=     9.
 Discarding MO integrals.
 MO basis two electron integral derivatives will not be stored on disk.
 IAlg= 3 DoFC=T DoPWx=T Debug=F.
 Frozen-core window:  NFC=   4 NFV=   0.
 Reordered first order wavefunction length =     21010545
 WUsed=     14308542  WInt=        328424  WEnd=      57617920
 Dk804=     43223136. Dk1111=           0. Dk1112=   104664288.
 MaxDsk=  4194304000  LAFull=    21010545  DskLim=  4194304000.
 NUsed=  447930361.  326321761.  229430344.  215639999.  179641501.  155642503.
 In DefCFB: NBatch=  1 ICI= 16 ICA=122 LFMax= 41
            Large arrays: LIAPS=   299246360 LIARS=    99064000 words.
 In StABat: MaxSiz= 25 MinSiz=  9 NAtomB=  7
 DoIAMN: NPSUse=  8.
 In DefCFB: NBatch=  1 ICI= 16 ICA=122 LFMax= 41
            Large arrays: LIAPS=   299246360 LIARS=    99064000 words.
 In StABat: MaxSiz= 25 MinSiz=  9 NAtomB=  7
 Leave Link  811 at Fri Oct 23 17:07:47 2009, MaxMem= 1258291200 cpu:    2813.3
 (Enter /home/g09/l804.exe)
 Frozen-core window:  NFC=   4 NFV=   0.
 Open-shell transformation, MDV=  1258291200 ITran=4 ISComp=1.
 Semi-Direct transformation.
 ModeAB=           2 MOrb=            16 LenV=    1257596235
 LASXX=     18914236 LTotXX=    18914236 LenRXX=    18914236
 LTotAB=    19586616 MaxLAS=    23202320 LenRXY=    23202320
 NonZer=    37828472 LenScr=    57513984 LnRSAI=           0
 LnScr1=           0 LExtra=    14636412 Total=    114266952
 MaxDsk=  4194304000 SrtSym=           F ITran=            4
 DoSDTr:  NPSUse=  8
 JobTyp=1 Pass  1:  I=   1 to  16.
 (rs|ai) integrals will be sorted in core.
 Complete sort for first half transformation.
 First half transformation complete.
 Begin second half transformation for I=  10.
 Begin second half transformation for I=  10.
 Complete sort for second half transformation.
 Second half transformation complete.
 ModeAB=           2 MOrb=            15 LenV=    1257596235
 LASXX=     17828850 LTotXX=    17828850 LenRXX=    21752175
 LTotAB=    14392950 MaxLAS=    21752175 LenRXY=    14392950
 NonZer=    35657700 LenScr=    54261760 LnRSAI=           0
 LnScr1=           0 LExtra=    56752968 Total=    147159853
 MaxDsk=  4194304000 SrtSym=           F ITran=            4
 DoSDTr:  NPSUse=  8
 JobTyp=2 Pass  1:  I=   1 to  15.
 (rs|ai) integrals will be sorted in core.
 Complete sort for first half transformation.
 First half transformation complete.
 Begin second half transformation for I=  10.
 Begin second half transformation for I=  10.
 Complete sort for second half transformation.
 Second half transformation complete.
 Spin components of T(2) and E(2):
     alpha-alpha T2 =       0.3243854573D-01 E2=     -0.8900189600D-01
     alpha-beta  T2 =       0.1656915016D+00 E2=     -0.4722230732D+00
     beta-beta   T2 =       0.2833967229D-01 E2=     -0.7721558212D-01
 ANorm=    0.1566186272D+01
 E2 =    -0.6384405514D+00 EUMP2 =    -0.19168135597571D+03
 (S**2,0)=  0.83969D+00           (S**2,1)=  0.83103D+00
 E(PUHF)=      -0.19104601670D+03        E(PMP2)=      -0.19168431227D+03
 Leave Link  804 at Fri Oct 23 17:08:19 2009, MaxMem= 1258291200 cpu:     254.3
 (Enter /home/g09/l1002.exe)
 Minotr:  UHF open shell wavefunction.
          Computing MP2/KS-MP2 derivatives.
          Using Z-Vector for PSCF gradient.
          Skipping F1 and S1 gradient terms here.
          IDoAtm=111111111
          Frozen-core window.
          Using MO integrals in the linear equations.
          Forming densities via direct SCF.
          Differentiating once with respect to electric field.
                with respect to dipole field.
          Differentiating once with respect to nuclear coordinates.
          Requested convergence is 1.0D-10 RMS, and 1.0D-09 maximum.
          NewPWx=F KeepS1=T KeepF1=T KeepIn=T MapXYZ=F SortEE=F KeepMc=T.
          MDV=    1258291106 using IRadAn=       0.
          Solving linear equations separately, MaxMat=       0.
          There are     1 degrees of freedom in the 1st order CPHF.  IDoFFX=0.
 Symmetry not used in FoFDir.
 MinBra= 0 MaxBra= 2 Meth= 1.
 IRaf=       0 NMat=   1 IRICut=       1 DoRegI=T DoRafI=F ISym2E= 0 JSym2E=0.
 LinEq1:  Iter=  0 NonCon=     1 RMS=3.03D-03 Max=2.51D-02
 LinEq1:  Iter=  1 NonCon=     1 RMS=1.00D-03 Max=7.76D-03
 LinEq1:  Iter=  2 NonCon=     1 RMS=5.79D-04 Max=4.78D-03
 LinEq1:  Iter=  3 NonCon=     1 RMS=1.80D-04 Max=2.69D-03
 LinEq1:  Iter=  4 NonCon=     1 RMS=5.92D-05 Max=6.45D-04
 LinEq1:  Iter=  5 NonCon=     1 RMS=2.88D-05 Max=3.78D-04
 LinEq1:  Iter=  6 NonCon=     1 RMS=1.01D-05 Max=8.93D-05
 LinEq1:  Iter=  7 NonCon=     1 RMS=4.25D-06 Max=6.68D-05
 LinEq1:  Iter=  8 NonCon=     1 RMS=2.00D-06 Max=2.36D-05
 LinEq1:  Iter=  9 NonCon=     1 RMS=8.11D-07 Max=7.79D-06
 LinEq1:  Iter= 10 NonCon=     1 RMS=2.70D-07 Max=3.28D-06
 LinEq1:  Iter= 11 NonCon=     1 RMS=1.03D-07 Max=1.04D-06
 LinEq1:  Iter= 12 NonCon=     1 RMS=3.72D-08 Max=3.12D-07
 LinEq1:  Iter= 13 NonCon=     1 RMS=1.27D-08 Max=1.00D-07
 LinEq1:  Iter= 14 NonCon=     1 RMS=4.46D-09 Max=3.59D-08
 LinEq1:  Iter= 15 NonCon=     1 RMS=1.13D-09 Max=9.34D-09
 LinEq1:  Iter= 16 NonCon=     1 RMS=2.73D-10 Max=1.78D-09
 LinEq1:  Iter= 17 NonCon=     0 RMS=5.85D-11 Max=4.09D-10
 Linear equations converged to 1.000D-10 1.000D-09 after    17 iterations.
 End of Minotr Frequency-dependent properties file   721 does not exist.
 End of Minotr Frequency-dependent properties file   722 does not exist.
 Leave Link 1002 at Fri Oct 23 17:08:23 2009, MaxMem= 1258291200 cpu:      32.7
 (Enter /home/g09/l1102.exe)
 Use density number 2.
 Symmetrizing basis deriv contribution to polar:
 IMax=3 JMax=2 DiffMx= 0.00D+00
 Leave Link 1102 at Fri Oct 23 17:08:24 2009, MaxMem= 1258291200 cpu:       0.7
 (Enter /home/g09/l1110.exe)
 Forming Gx(P) for generalized density number  2 NAtomX=     9.
 Integral derivatives from FoFDir/FoFCou, PRISM(SPDF).
 Do as many integral derivatives as possible in FoFDir.
 G2DrvN: MDV=    1258291024.
 G2DrvN: will do    10 centers at a time, making    1 passes doing MaxLOS=2.
 Calling FoFCou, ICntrl=  3107 FMM=F I1Cent=   0 AccDes= 0.00D+00.
 FoFCou: FMM=F IPFlag=           0 FMFlag=      100000 FMFlg1=           0
         NFxFlg=           0 DoJE=F BraDBF=F KetDBF=F FulRan=T
         Omega=  0.000000  0.000000  1.000000  0.000000  0.000000 ICntrl=    3107 IOpCl=  1
         NMat0=    1 NMatS0=    1 NMatT0=    0 NMatD0=    1 NMtDS0=    0 NMtDT0=    0
         I1Cent=           0 NGrid=           0.
 Symmetry not used in FoFCou.
 FoFDir/FoFCou used for L=0 through L=2.
 End of G2Drv Frequency-dependent properties file   721 does not exist.
 End of G2Drv Frequency-dependent properties file   722 does not exist.
 Leave Link 1110 at Fri Oct 23 17:08:30 2009, MaxMem= 1258291200 cpu:      54.1
 (Enter /home/g09/l1112.exe)
 MP22nd: MDV=    1258291200
 This link is doing NAtomX=     9 total of    30 degrees of freedom.
 Using ON3 I/O method in MakUI.
 Frozen-core window:  NFC=   4 NFV=   0.
 Using Ix for Sx.
 Use MO integrals over full window.
 Using OV2 memory method for fx*t*t/D, MaxI=    15 DoOO2=F NP=   8.
 R2 and R3 integrals will be kept in memory, NReq=   113608805.
 Symmetry not used in FoFDir.
 MinBra= 0 MaxBra= 2 Meth= 1.
 IRaf=       0 NMat=   1 IRICut=       1 DoRegI=T DoRafI=F ISym2E= 0 JSym2E=0.
 DD1Dir will call FoFMem   1 times, MxPair=       706
 NAB=   240 NAA=   120 NBB=   105.
 Discarding MO integrals.
 Leave Link 1112 at Fri Oct 23 17:11:18 2009, MaxMem= 1258291200 cpu:    1277.1
 (Enter /home/g09/l601.exe)
 Copying SCF densities to generalized density rwf, IOpCl= 1 IROHF=0.

 **********************************************************************

            Population analysis using the SCF density.

 **********************************************************************

 Alpha  occ. eigenvalues --  -20.61178 -11.32516 -11.27987 -11.26969  -1.38958
 Alpha  occ. eigenvalues --   -1.16325  -0.85450  -0.78786  -0.70856  -0.65535
 Alpha  occ. eigenvalues --   -0.63935  -0.58538  -0.51974  -0.46626  -0.36625
 Alpha  occ. eigenvalues --   -0.27901
 Alpha virt. eigenvalues --    0.03366   0.04431   0.04989   0.05418   0.07239
 Alpha virt. eigenvalues --    0.09573   0.10830   0.11923   0.12457   0.12867
 Alpha virt. eigenvalues --    0.15084   0.15985   0.16633   0.16849   0.17838
 Alpha virt. eigenvalues --    0.19620   0.21695   0.22391   0.24169   0.25339
 Alpha virt. eigenvalues --    0.27469   0.29226   0.30182   0.31508   0.32929
 Alpha virt. eigenvalues --    0.36345   0.38557   0.39027   0.41238   0.43226
 Alpha virt. eigenvalues --    0.45167   0.45475   0.46687   0.49217   0.49601
 Alpha virt. eigenvalues --    0.51314   0.52842   0.53467   0.56012   0.56665
 Alpha virt. eigenvalues --    0.58335   0.59827   0.60986   0.62384   0.63586
 Alpha virt. eigenvalues --    0.64322   0.65706   0.67877   0.69439   0.70387
 Alpha virt. eigenvalues --    0.71931   0.73217   0.74753   0.76265   0.77905
 Alpha virt. eigenvalues --    0.80255   0.81246   0.87440   0.91471   0.93372
 Alpha virt. eigenvalues --    0.94608   1.00260   1.04295   1.12321   1.15040
 Alpha virt. eigenvalues --    1.17232   1.19976   1.23014   1.24940   1.29097
 Alpha virt. eigenvalues --    1.31074   1.32534   1.36183   1.43489   1.48270
 Alpha virt. eigenvalues --    1.50939   1.53475   1.58862   1.60545   1.62891
 Alpha virt. eigenvalues --    1.68050   1.71379   1.72490   1.75540   1.77238
 Alpha virt. eigenvalues --    1.83623   1.87138   1.88341   1.92411   1.96762
 Alpha virt. eigenvalues --    1.99538   2.01994   2.03239   2.05889   2.09933
 Alpha virt. eigenvalues --    2.14967   2.20540   2.24179   2.32021   2.32936
 Alpha virt. eigenvalues --    2.39683   2.41251   2.48521   2.51869   2.56391
 Alpha virt. eigenvalues --    2.60259   2.65297   2.69532   2.74905   2.85665
 Alpha virt. eigenvalues --    2.92867   3.02263   3.12157   3.24365   3.33644
 Alpha virt. eigenvalues --    3.69968   3.73723   3.79609   3.84285   3.98658
 Alpha virt. eigenvalues --    4.24636
  Beta  occ. eigenvalues --  -20.60739 -11.30570 -11.27588 -11.26145  -1.37374
  Beta  occ. eigenvalues --   -1.14214  -0.83016  -0.75690  -0.69268  -0.64935
  Beta  occ. eigenvalues --   -0.60762  -0.55153  -0.49672  -0.43072  -0.34392
  Beta virt. eigenvalues --    0.03340   0.04500   0.05090   0.05415   0.07242
  Beta virt. eigenvalues --    0.08824   0.10000   0.11004   0.12188   0.12919
  Beta virt. eigenvalues --    0.15409   0.15716   0.16701   0.17079   0.17545
  Beta virt. eigenvalues --    0.19284   0.20530   0.21776   0.23712   0.24191
  Beta virt. eigenvalues --    0.26244   0.27817   0.29518   0.30916   0.31991
  Beta virt. eigenvalues --    0.33179   0.37331   0.39142   0.39952   0.41814
  Beta virt. eigenvalues --    0.43740   0.45872   0.45993   0.47418   0.49423
  Beta virt. eigenvalues --    0.50181   0.51946   0.53148   0.54616   0.56793
  Beta virt. eigenvalues --    0.57488   0.59130   0.60824   0.61950   0.63008
  Beta virt. eigenvalues --    0.63839   0.65093   0.66888   0.68705   0.70167
  Beta virt. eigenvalues --    0.71942   0.72407   0.73964   0.75725   0.76709
  Beta virt. eigenvalues --    0.78807   0.80471   0.81722   0.87816   0.92167
  Beta virt. eigenvalues --    0.94008   0.95436   1.00897   1.05246   1.13036
  Beta virt. eigenvalues --    1.16013   1.18318   1.21069   1.24671   1.25270
  Beta virt. eigenvalues --    1.29389   1.33027   1.34343   1.37567   1.44378
  Beta virt. eigenvalues --    1.48627   1.51641   1.54542   1.59204   1.61172
  Beta virt. eigenvalues --    1.63518   1.69587   1.71859   1.73951   1.76297
  Beta virt. eigenvalues --    1.78118   1.84213   1.88120   1.89672   1.93075
  Beta virt. eigenvalues --    1.97360   2.00410   2.02064   2.03855   2.06787
  Beta virt. eigenvalues --    2.10476   2.15396   2.21436   2.25652   2.32665
  Beta virt. eigenvalues --    2.33465   2.40176   2.41711   2.49753   2.52389
  Beta virt. eigenvalues --    2.56933   2.60800   2.65479   2.70116   2.75222
  Beta virt. eigenvalues --    2.86344   2.93231   3.02499   3.12323   3.25138
  Beta virt. eigenvalues --    3.34302   3.70523   3.74486   3.80382   3.84814
  Beta virt. eigenvalues --    3.99407   4.24998
          Condensed to atoms (all electrons):
              1          2          3          4          5          6
     1  C    4.791197   0.339777   0.394300   0.186042  -0.045181   0.021946
     2  H    0.339777   1.192327  -0.173737  -0.138398  -0.005948   0.003236
     3  H    0.394300  -0.173737   0.999963   0.112072  -0.263547  -0.029728
     4  C    0.186042  -0.138398   0.112072   6.933448  -0.577077  -0.105922
     5  C   -0.045181  -0.005948  -0.263547  -0.577077   6.459045   0.337056
     6  H    0.021946   0.003236  -0.029728  -0.105922   0.337056   1.054787
     7  H   -0.047554   0.017994  -0.081960  -0.349021   0.325082   0.013809
     8  O    0.002634   0.001363  -0.009430  -0.336928   0.101177   0.004399
     9  H   -0.000487  -0.003394  -0.003777  -0.074103  -0.017757   0.012650
              7          8          9
     1  C   -0.047554   0.002634  -0.000487
     2  H    0.017994   0.001363  -0.003394
     3  H   -0.081960  -0.009430  -0.003777
     4  C   -0.349021  -0.336928  -0.074103
     5  C    0.325082   0.101177  -0.017757
     6  H    0.013809   0.004399   0.012650
     7  H    0.475635   0.009622   0.004012
     8  O    0.009622   8.573117   0.373314
     9  H    0.004012   0.373314   0.527411
 Mulliken atomic charges:
              1
     1  C    0.357326
     2  H   -0.233219
     3  H    0.055844
     4  C    0.349888
     5  C   -0.312850
     6  H   -0.312233
     7  H    0.632381
     8  O   -0.719268
     9  H    0.182131
 Sum of Mulliken atomic charges =   0.00000
 Mulliken charges with hydrogens summed into heavy atoms:
              1
     1  C    0.179951
     4  C    0.349888
     5  C    0.007298
     8  O   -0.537137
 Sum of Mulliken charges with hydrogens summed into heavy atoms =   0.00000
          Atomic-Atomic Spin Densities.
              1          2          3          4          5          6
     1  C    0.558985   0.022752   0.023987  -0.234202   0.046554  -0.000791
     2  H    0.022752  -0.081033  -0.000394   0.022114  -0.001827   0.000048
     3  H    0.023987  -0.000394  -0.109353  -0.060030   0.108038   0.006111
     4  C   -0.234202   0.022114  -0.060030   1.674121  -0.403687   0.019118
     5  C    0.046554  -0.001827   0.108038  -0.403687   0.498673   0.004517
     6  H   -0.000791   0.000048   0.006111   0.019118   0.004517  -0.027218
     7  H    0.007934  -0.003248   0.000206  -0.038833  -0.112418  -0.016816
     8  O    0.011559  -0.001913   0.004432  -0.158016   0.039592  -0.003567
     9  H    0.003120  -0.000101   0.000571  -0.035815   0.013025   0.000420
              7          8          9
     1  C    0.007934   0.011559   0.003120
     2  H   -0.003248  -0.001913  -0.000101
     3  H    0.000206   0.004432   0.000571
     4  C   -0.038833  -0.158016  -0.035815
     5  C   -0.112418   0.039592   0.013025
     6  H   -0.016816  -0.003567   0.000420
     7  H   -0.180932  -0.002276   0.002331
     8  O   -0.002276   0.133836   0.006495
     9  H    0.002331   0.006495  -0.005059
 Mulliken atomic spin densities:
              1
     1  C    0.439897
     2  H   -0.043603
     3  H   -0.026431
     4  C    0.784770
     5  C    0.192467
     6  H   -0.018176
     7  H   -0.344051
     8  O    0.030142
     9  H   -0.015013
 Sum of Mulliken atomic spin densities =   1.00000
 APT atomic charges:
              1
     1  C   -0.096829
     2  H    0.079831
     3  H    0.125778
     4  C    0.378257
     5  C   -0.562133
     6  H    0.060955
     7  H    0.319904
     8  O   -0.550047
     9  H    0.244283
 Sum of APT charges=   0.00000
 APT Atomic charges with hydrogens summed into heavy atoms:
              1
     1  C    0.108780
     2  H    0.000000
     3  H    0.000000
     4  C    0.378257
     5  C   -0.181274
     6  H    0.000000
     7  H    0.000000
     8  O   -0.305763
     9  H    0.000000
 Sum of APT charges=   0.00000
 Electronic spatial extent (au):  <R**2>=            455.7250
 Charge=              0.0000 electrons
 Dipole moment (field-independent basis, Debye):
    X=              0.6755    Y=             -0.4685    Z=             -1.2399  Tot=              1.4877
 Quadrupole moment (field-independent basis, Debye-Ang):
   XX=            -29.5684   YY=            -26.0168   ZZ=            -21.7637
   XY=              2.0139   XZ=              4.2096   YZ=              1.7209
 Traceless Quadrupole moment (field-independent basis, Debye-Ang):
   XX=             -3.7854   YY=             -0.2339   ZZ=              4.0193
   XY=              2.0139   XZ=              4.2096   YZ=              1.7209
 Octapole moment (field-independent basis, Debye-Ang**2):
  XXX=             81.9844  YYY=             23.6098  ZZZ=             54.6704  XYY=             21.3978
  XXY=              5.8992  XXZ=             10.4705  XZZ=             10.2246  YZZ=              7.3913
  YYZ=             17.0396  XYZ=             -6.3789
 Hexadecapole moment (field-independent basis, Debye-Ang**3):
 XXXX=           -362.5138 YYYY=            -78.9211 ZZZZ=           -170.0239 XXXY=            -15.7133
 XXXZ=            -36.4690 YYYX=            -17.9125 YYYZ=            -25.6775 ZZZX=            -33.6474
 ZZZY=            -30.3230 XXYY=            -70.0866 XXZZ=            -56.3473 YYZZ=            -39.0039
 XXYZ=              0.6020 YYXZ=            -15.9397 ZZXY=              5.3638
 N-N= 1.135023710428D+02 E-N=-1.005362852891D+03  KE= 2.851359857605D+02
  Exact polarizability:  53.524  -0.646  49.206   2.544   4.006  51.564
 Approx polarizability:  40.770  -0.243  42.794   0.776   4.346  41.955
                          Isotropic Fermi Contact Couplings
        Atom                 a.u.       MegaHertz       Gauss      10(-4) cm-1
     1  C(13)             -0.02666     -29.96913     -10.69373      -9.99663
     2  H(1)               0.00237      10.59274       3.77975       3.53336
     3  H(1)               0.01069      47.77115      17.04593      15.93474
     4  C(13)              0.26229     294.86376     105.21472      98.35596
     5  C(13)              0.13814     155.30047      55.41507      51.80266
     6  H(1)              -0.00331     -14.77680      -5.27273      -4.92901
     7  H(1)               0.01319      58.97707      21.04448      19.67263
     8  O(17)              0.05987     -36.29121     -12.94961     -12.10545
     9  H(1)              -0.00120      -5.36142      -1.91309      -1.78838
 --------------------------------------------------------
       Center         ----  Spin Dipole Couplings  ----
                      3XX-RR        3YY-RR        3ZZ-RR
 --------------------------------------------------------
     1   Atom        0.033442     -0.054439      0.020997
     2   Atom        0.000454      0.000254     -0.000708
     3   Atom       -0.001137      0.003817     -0.002680
     4   Atom       -0.301339      0.318192     -0.016853
     5   Atom       -0.049435     -0.078271      0.127707
     6   Atom       -0.015883      0.024254     -0.008371
     7   Atom        0.034802     -0.011305     -0.023498
     8   Atom       -0.112977      0.224805     -0.111828
     9   Atom        0.001367     -0.004862      0.003495
 --------------------------------------------------------
                        XY            XZ            YZ
 --------------------------------------------------------
     1   Atom       -0.143873      0.030738     -0.063609
     2   Atom       -0.007818      0.006464      0.002490
     3   Atom        0.001829      0.015004     -0.000479
     4   Atom       -0.073683      0.063009     -0.442164
     5   Atom       -0.075853      0.222905     -0.119363
     6   Atom        0.008534      0.012920      0.000931
     7   Atom       -0.016837     -0.039250      0.001464
     8   Atom        0.175213     -0.078345     -0.198630
     9   Atom        0.014721      0.009073      0.015604
 --------------------------------------------------------


 ---------------------------------------------------------------------------------
              Anisotropic Spin Dipole Couplings in Principal Axis System
 ---------------------------------------------------------------------------------

       Atom             a.u.   MegaHertz   Gauss  10(-4) cm-1        Axes

              Baa    -0.1671   -22.421    -8.000    -7.479  0.5542  0.8118  0.1840
     1 C(13)  Bbb    -0.0002    -0.028    -0.010    -0.009 -0.4312  0.0909  0.8977
              Bcc     0.1673    22.449     8.010     7.488  0.7120 -0.5768  0.4004
 
              Baa    -0.0114    -6.060    -2.162    -2.022  0.6506  0.5502 -0.5235
     2 H(1)   Bbb     0.0021     1.127     0.402     0.376  0.0998  0.6214  0.7771
              Bcc     0.0092     4.933     1.760     1.645  0.7529 -0.5578  0.3493
 
              Baa    -0.0171    -9.101    -3.247    -3.036 -0.6885  0.0769  0.7211
     3 H(1)   Bbb     0.0038     2.046     0.730     0.682 -0.0244  0.9914 -0.1289
              Bcc     0.0132     7.055     2.517     2.353  0.7248  0.1063  0.6807
 
              Baa    -0.3280   -44.021   -15.708   -14.684 -0.5071  0.4466  0.7372
     4 C(13)  Bbb    -0.3054   -40.982   -14.624   -13.670  0.8558  0.3627  0.3689
              Bcc     0.6335    85.003    30.331    28.354 -0.1026  0.8179 -0.5661
 
              Baa    -0.2009   -26.965    -9.622    -8.995  0.8175 -0.0526 -0.5735
     5 C(13)  Bbb    -0.1272   -17.071    -6.091    -5.694  0.2296  0.9430  0.2408
              Bcc     0.3282    44.036    15.713    14.689  0.5282 -0.3285  0.7830
 
              Baa    -0.0264   -14.074    -5.022    -4.694  0.8091 -0.1258 -0.5740
     6 H(1)   Bbb     0.0000    -0.003    -0.001    -0.001  0.5411 -0.2215  0.8112
              Bcc     0.0264    14.077     5.023     4.696  0.2292  0.9670  0.1111
 
              Baa    -0.0445   -23.750    -8.475    -7.922  0.4683  0.1995  0.8608
     7 H(1)   Bbb    -0.0136    -7.257    -2.589    -2.421  0.1059  0.9545 -0.2788
              Bcc     0.0581    31.006    11.064    10.343  0.8772 -0.2217 -0.4259
 
              Baa    -0.2042    14.775     5.272     4.928 -0.1245  0.4583  0.8800
     8 O(17)  Bbb    -0.1859    13.450     4.799     4.486  0.9260 -0.2649  0.2690
              Bcc     0.3901   -28.225   -10.071    -9.415  0.3565  0.8484 -0.3914
 
              Baa    -0.0196   -10.474    -3.737    -3.494 -0.4061  0.8234 -0.3963
     9 H(1)   Bbb    -0.0067    -3.568    -1.273    -1.190  0.7255  0.0269 -0.6877
              Bcc     0.0263    14.042     5.011     4.684  0.5556  0.5668  0.6083
 

 ---------------------------------------------------------------------------------

 No NMR shielding tensors so no spin-rotation constants.
 Leave Link  601 at Fri Oct 23 17:11:18 2009, MaxMem= 1258291200 cpu:       2.8
 (Enter /home/g09/l701.exe)
 Compute integral second derivatives.
 ... and contract with generalized density number  2.
 Leave Link  701 at Fri Oct 23 17:11:19 2009, MaxMem= 1258291200 cpu:       2.5
 (Enter /home/g09/l702.exe)
 L702 exits ... SP integral derivatives will be done elsewhere.
 Leave Link  702 at Fri Oct 23 17:11:19 2009, MaxMem= 1258291200 cpu:       0.3
 (Enter /home/g09/l703.exe)
 Compute integral second derivatives, UseDBF=F ICtDFT=           0.
 Integral derivatives from FoFDir, PRISM(SPDF).
 Calling FoFJK, ICntrl=    100127 FMM=F ISym2X=0 I1Cent= 0 IOpClX= 1 NMat=1 NMatS=1 NMatT=0.
 FoFCou: FMM=F IPFlag=           0 FMFlag=      100000 FMFlg1=         800
         NFxFlg=           0 DoJE=F BraDBF=F KetDBF=F FulRan=T
         Omega=  0.000000  0.000000  1.000000  0.000000  0.000000 ICntrl=  100127 IOpCl=  1
         NMat0=    1 NMatS0=    1 NMatT0=    0 NMatD0=    1 NMtDS0=    0 NMtDT0=    0
         I1Cent=           0 NGrid=           0.
 Symmetry not used in FoFCou.
 Leave Link  703 at Fri Oct 23 17:11:31 2009, MaxMem= 1258291200 cpu:      92.4
 (Enter /home/g09/l716.exe)
 Dipole        = 2.05215894D-01-1.30152033D-01-3.67610895D-01
 Polarizability= 5.35239548D+01-6.45835894D-01 4.92062752D+01
                 2.54399742D+00 4.00593119D+00 5.15636710D+01
 -------------------------------------------------------------------
 Center     Atomic                   Forces (Hartrees/Bohr)
 Number     Number              X              Y              Z
 -------------------------------------------------------------------
      1        6          -0.002227450   -0.014208665    0.030960611
      2        1          -0.003364769   -0.033034966    0.006224853
      3        1           0.007735207    0.049141322    0.016898289
      4        6          -0.003848265    0.026183561   -0.043684769
      5        6          -0.003613648    0.043817980   -0.015488140
      6        1           0.002826245   -0.000275054   -0.002549097
      7        1          -0.009117913   -0.080349831   -0.015935995
      8        8           0.023362158    0.005519228   -0.004760396
      9        1          -0.011751565    0.003206425    0.028334645
 -------------------------------------------------------------------
 Cartesian Forces:  Max     0.080349831 RMS     0.025967672
 Force constants in Cartesian coordinates: 
                1             2             3             4             5 
      1  0.447639D+00
      2  0.440855D-01  0.135350D+00
      3  0.555392D-01  0.103957D+00  0.825316D+00
      4 -0.335448D-01  0.134459D-02  0.743041D-02  0.390434D-01
      5  0.386729D-02 -0.176826D-01  0.507384D-02 -0.154878D-02  0.290580D-01
      6  0.103176D-01 -0.226517D-01 -0.347308D+00 -0.408183D-02  0.177912D-01
      7 -0.287752D+00  0.223558D-01  0.138658D+00  0.388367D-02  0.265715D-02
      8  0.267175D-02 -0.916264D-02 -0.328754D-02 -0.699822D-02 -0.798620D-02
      9  0.108594D+00  0.308876D-01 -0.795506D-01  0.231799D-01  0.458666D-02
     10 -0.176157D+00  0.115895D-01 -0.121365D+00  0.128860D-03  0.268114D-03
     11  0.204100D-01 -0.335630D-01 -0.549870D-02  0.356523D-02 -0.128916D-01
     12 -0.186259D-01  0.129538D-01 -0.152087D+00 -0.351951D-01  0.133042D-01
     13  0.457806D-01 -0.570915D-01 -0.534112D-01 -0.733742D-02 -0.253013D-02
     14 -0.770251D-01 -0.626132D-01 -0.694328D-01  0.222274D-02  0.994695D-02
     15 -0.117149D+00 -0.991003D-01 -0.223220D+00  0.315440D-02 -0.332011D-01
     16 -0.633174D-02 -0.101651D-01 -0.838757D-02  0.113121D-02  0.111106D-02
     17  0.558893D-02 -0.219955D-02 -0.530040D-04 -0.443283D-03  0.208261D-02
     18  0.342115D-02 -0.184785D-01 -0.541360D-02 -0.193032D-03 -0.322994D-02
     19 -0.477947D-02 -0.166244D-01 -0.147803D-01 -0.238805D-02 -0.465443D-02
     20 -0.844844D-02 -0.605227D-02 -0.265014D-01  0.251923D-02 -0.445158D-02
     21 -0.206781D-01  0.116648D-01 -0.348298D-01  0.252923D-02 -0.206737D-02
     22  0.208393D-01  0.820538D-02 -0.702811D-02 -0.154370D-02  0.828602D-03
     23  0.664241D-02  0.339195D-03 -0.497208D-02 -0.552522D-03  0.207306D-02
     24 -0.211351D-01 -0.179263D-01  0.157792D-01  0.261818D-02 -0.185418D-02
     25 -0.569305D-02 -0.369976D-02  0.334527D-02  0.626845D-03  0.111658D-05
     26  0.220758D-02 -0.441550D-02  0.714518D-03 -0.108994D-03 -0.148620D-03
     27 -0.283611D-03 -0.130660D-02  0.131415D-02  0.557858D-03 -0.403365D-03
                6             7             8             9            10 
      6  0.367381D+00
      7 -0.351930D-02  0.301324D+00
      8  0.754408D-03 -0.521310D-02  0.146018D-01
      9 -0.726830D-02 -0.125347D+00 -0.548005D-02  0.113059D+00
     10  0.337502D-02 -0.682436D-02  0.114933D-01  0.692021D-03  0.492834D+00
     11  0.149284D-02 -0.166644D-02  0.112722D-01 -0.499312D-02 -0.697845D-01
     12 -0.142280D-01  0.102961D-01 -0.133585D-02  0.302422D-01  0.810019D-01
     13 -0.211641D-02 -0.102568D-01 -0.653727D-02  0.188828D-02 -0.134951D+00
     14  0.819013D-02 -0.199327D-01 -0.882754D-02 -0.216369D-01  0.217438D+00
     15  0.804351D-03 -0.154875D-01  0.410157D-02 -0.387854D-01  0.469683D-01
     16 -0.551755D-03 -0.117780D-02 -0.389792D-02 -0.121899D-02  0.116870D-02
     17 -0.144678D-02 -0.615923D-03 -0.118282D-02 -0.629770D-03 -0.505652D-02
     18  0.235729D-02 -0.405628D-03  0.306224D-02  0.118543D-02 -0.162703D-01
     19 -0.256385D-02 -0.955075D-03  0.918057D-02 -0.144522D-01  0.587304D-01
     20 -0.232091D-02  0.350067D-02  0.576677D-02 -0.265962D-02 -0.831081D-01
     21 -0.151113D-02 -0.715095D-03 -0.860425D-03 -0.967124D-02 -0.918289D-02
     22 -0.633204D-03  0.318774D-02 -0.436723D-03  0.892256D-02 -0.204214D+00
     23 -0.167394D-02 -0.118052D-02 -0.554435D-02  0.476268D-03 -0.722676D-01
     24 -0.439905D-03 -0.378804D-02  0.256889D-02 -0.853735D-02  0.849803D-02
     25 -0.226281D-03 -0.142864D-02 -0.262392D-03 -0.225855D-02 -0.307155D-01
     26 -0.135325D-03  0.950467D-04  0.106275D-02 -0.551056D-03 -0.105716D-01
     27  0.212110D-03  0.308482D-03  0.476757D-03 -0.673909D-03  0.628317D-02
               11            12            13            14            15 
     11  0.279183D+00
     12  0.178523D-01  0.209557D+00
     13  0.574129D-01 -0.126258D-01  0.218156D+00
     14 -0.165819D+00 -0.932194D-01  0.873730D-01  0.497221D+00
     15 -0.246141D-01  0.436672D-02  0.523540D-01  0.178149D+00  0.326005D+00
     16  0.352177D-01  0.701094D-02 -0.436142D-01 -0.121526D+00 -0.227403D-01
     17 -0.228251D-01 -0.119002D-01 -0.977154D-01 -0.293907D+00 -0.624686D-01
     18  0.171715D-02 -0.267911D-02 -0.203522D-01 -0.441007D-01 -0.365653D-01
     19 -0.127824D-01 -0.256444D-01 -0.158739D-01 -0.956674D-01  0.386745D-01
     20  0.361137D-02  0.605691D-01 -0.293160D-02 -0.226241D-01  0.354364D-01
     21  0.192921D-01  0.841198D-02  0.349560D-02  0.493147D-01 -0.441575D-01
     22 -0.136169D-01  0.345415D-01 -0.542646D-01  0.593173D-02  0.134512D-01
     23 -0.577596D-01  0.180172D-01  0.202669D-01  0.459078D-01 -0.354001D-02
     24 -0.145680D-02 -0.750244D-01  0.249595D-01 -0.747554D-02  0.967541D-02
     25 -0.187556D-01 -0.407592D-01  0.236088D-02  0.118598D-02  0.774096D-03
     26 -0.120866D-02 -0.162412D-01  0.175307D-02  0.715508D-03  0.523741D-02
     27 -0.379170D-02 -0.855916D-02  0.580824D-02  0.211749D-03  0.187687D-02
               16            17            18            19            20 
     16  0.529279D-01
     17  0.983626D-01  0.304541D+00
     18  0.246366D-01  0.737996D-01  0.400977D-01
     19 -0.819283D-02 -0.182015D-02  0.171020D-01 -0.402538D-01
     20  0.502663D-02  0.827714D-02 -0.738395D-02  0.958488D-01  0.317909D-01
     21  0.388967D-02  0.133074D-02 -0.494415D-02  0.208084D-01 -0.681958D-01
     22  0.498473D-02  0.536727D-05 -0.880170D-02  0.155224D-01 -0.126321D-01
     23 -0.425802D-02  0.645843D-02 -0.608822D-02  0.311211D-01 -0.189614D-01
     24 -0.158834D-02  0.115270D-02  0.495127D-02 -0.172639D-01  0.945497D-02
     25 -0.895915D-03  0.169445D-02  0.863116D-03 -0.180965D-02  0.224893D-03
     26  0.128894D-03 -0.124495D-02  0.702239D-03 -0.460171D-02  0.264319D-02
     27 -0.105031D-02  0.215264D-03  0.101050D-02 -0.188028D-02  0.160124D-02
               21            22            23            24            25 
     21  0.801401D-01
     22 -0.542936D-03  0.250746D+00
     23 -0.112202D-01  0.219501D-01  0.746018D-01
     24  0.571316D-02  0.296549D-02  0.112511D+00  0.425628D+00
     25  0.396131D-03 -0.352582D-01 -0.172181D-02  0.473419D-02  0.728132D-01
     26  0.741437D-03 -0.102354D-01 -0.471149D-01 -0.969742D-01  0.213331D-01
     27  0.848631D-03 -0.428748D-01 -0.103510D+00 -0.377746D+00  0.331312D-01
               26            27 
     26  0.497111D-01
     27  0.106506D+00  0.381717D+00
 Leave Link  716 at Fri Oct 23 17:11:31 2009, MaxMem= 1258291200 cpu:       0.6
 (Enter /home/g09/l103.exe)

 GradGradGradGradGradGradGradGradGradGradGradGradGradGradGradGradGradGrad
 Berny optimization.
 Internal  Forces:  Max     0.044874830 RMS     0.018701212
 Search for a saddle point.
 Step number   1 out of a maximum of   50
 All quantities printed in internal units (Hartrees-Bohrs-Radians)
 Second derivative matrix not updated -- analytic derivatives used.
 LST/QST climbing along tangent vector
     Eigenvalues ---   -0.10198  -0.03495  -0.00053   0.00679   0.01003
     Eigenvalues ---    0.01431   0.01668   0.03221   0.04250   0.06728
     Eigenvalues ---    0.09264   0.10675   0.15420   0.16241   0.25945
     Eigenvalues ---    0.28339   0.32967   0.35799   0.36851   0.37476
     Eigenvalues ---    0.418281000.000001000.000001000.000001000.00000
     Eigenvalues --- 1000.000001000.000001000.000001000.000001000.00000
     Eigenvalues --- 1000.000001000.000001000.000001000.000001000.00000
     Eigenvalues --- 1000.000001000.000001000.000001000.000001000.00000
     Eigenvalues --- 1000.00000
 Eigenvectors required to have negative eigenvalues:
                          R8        R11       D14       A11       D12
   1                    0.43366  -0.42942   0.42310  -0.27594  -0.26716
                          D11       A15       D4        D6        A9
   1                   -0.26534   0.26532  -0.25562  -0.25467  -0.14099
 Eigenvalue     2 is  -3.49D-02 should be greater than     0.000000 Eigenvector:
                          D8        R11       A16       D12       D7
   1                    0.33405   0.32241   0.31002  -0.30134   0.30112
                          D2        D3        D5        D14       A4
   1                   -0.24001  -0.23484  -0.23198   0.20206   0.19386
 Eigenvalue     3 is  -5.31D-04 should be greater than     0.000000 Eigenvector:
                          D10       D9        D14       D12       D4
   1                    0.54416   0.53861   0.43515   0.15757   0.15663
                          D1        D3        D6        D5        A3
   1                   -0.14546   0.14443   0.13498   0.12278   0.11926
 QST in optimization variable space.
                        Tangent   TS vect  // Eig F  Eigenval
   1         R1         0.00000   0.00000  -0.04992  -0.10198
   2         R2         0.00001   0.00001  -0.00640  -0.03495
   3         R3        -0.00046  -0.00046   0.00288  -0.00053
   4         R4         0.00160   0.00160  -0.01800   0.00679
   5         R5         0.00085   0.00085   0.01206   0.01003
   6         R6         0.00000   0.00000   0.00138   0.01431
   7         R7         0.00000   0.00000   0.01589   0.01668
   8         R8         0.43366   0.43366  -0.00359   0.03221
   9         R9         0.00000   0.00000   0.00161   0.04250
[...]
 Vibration     2          0.740              1.539              1.090
 Vibration     3          0.777              1.441              0.915
 Vibration     4          0.962              1.024              0.443
                       Q            Log10(Q)             Ln(Q)
 Total Bot       0.306545D-18        -18.513506        -42.628923
 Total V=0       0.261075D+13         12.416766         28.590660
 Vib (Bot)       0.282477D-30        -30.549016        -70.341709
 Vib (Bot)    1  0.848203D+00         -0.071500         -0.164635
 Vib (Bot)    2  0.496241D+00         -0.304307         -0.700693
 Vib (Bot)    3  0.426960D+00         -0.369613         -0.851066
 Vib (Bot)    4  0.246314D+00         -0.608511         -1.401149
 Vib (V=0)       0.240578D+01          0.381256          0.877874
 Vib (V=0)    1  0.148461D+01          0.171611          0.395149
 Vib (V=0)    2  0.120445D+01          0.080790          0.186026
 Vib (V=0)    3  0.115749D+01          0.063518          0.146255
 Vib (V=0)    4  0.105738D+01          0.024230          0.055792
 Electronic      0.200000D+01          0.301030          0.693147
 Translational   0.169300D+08          7.228656         16.644596
 Rotational      0.320497D+05          4.505824         10.375042
 
                                                   cyclopropanol w/ radical at OH
  C
                                                             IR Spectrum
 
     3                33   3                       2                             1   1   1  1   111                                  
     7                22   1                       4                             5   4   3  2   0009 9  8   7   6      43    2       
     7                44   4                       1                             2   1   0  0   7418 3  3   2   0      16    3       
     6                63   7                       7                             7   9   3  5   9783 2  4   4   4      38    2       
 
     X                XX   X                       X                             X   X   X  X   XXXX X  X   X   X      XX    X       
     X                X    X                                                     X   X   X  X    XXX    X   X   X            X       
     X                     X                                                     X   X   X       X      X   X   X            X       
     X                                                                           X   X   X       X      X       X            X       
     X                                                                           X   X   X       X              X            X       
     X                                                                           X   X   X       X              X            X       
     X                                                                           X   X   X       X              X            X       
                                                                                     X   X       X              X            X       
                                                                                     X           X              X            X       
                                                                                     X           X              X            X       
                                                                                     X           X              X            X       
                                                                                     X           X              X            X       
                                                                                                 X              X            X       
                                                                                                 X              X            X       
                                                                                                 X              X            X       
                                                                                                 X              X                    
                                                                                                 X              X                    
                                                                                                 X              X                    
                                                                                                                X                    
                                                                                                                X                    
 
 -------------------------------------------------------------------
 Center     Atomic                   Forces (Hartrees/Bohr)
 Number     Number              X              Y              Z
 -------------------------------------------------------------------
      1        6          -0.000000133    0.000000154   -0.000000121
      2        1           0.000000031   -0.000000041    0.000000020
      3        1           0.000000046   -0.000000009    0.000000063
      4        6           0.000000233    0.000000092    0.000000090
      5        6          -0.000000042   -0.000000158    0.000000027
      6        1           0.000000071    0.000000026   -0.000000093
      7        1          -0.000000091   -0.000000081    0.000000041
      8        8          -0.000000022    0.000000187    0.000000005
      9        1          -0.000000093   -0.000000171   -0.000000033
 -------------------------------------------------------------------
 Cartesian Forces:  Max     0.000000233 RMS     0.000000100
 Force constants in Cartesian coordinates: 
                1             2             3             4             5 
      1  0.496355D+00
      2  0.223478D+00  0.367241D+00
      3  0.442847D-01 -0.572893D-01  0.608019D+00
      4 -0.730232D-01 -0.485504D-01  0.781139D-01  0.715064D-01
      5 -0.478322D-01 -0.865568D-01  0.105834D+00  0.482395D-01  0.884009D-01
      6  0.720819D-01  0.102313D+00 -0.260463D+00 -0.751260D-01 -0.108693D+00
      7 -0.229641D+00 -0.149425D+00 -0.423861D-02 -0.373400D-02 -0.236098D-02
      8 -0.149674D+00 -0.154837D+00  0.806493D-03 -0.721705D-02 -0.513434D-02
      9 -0.292380D-02  0.817423D-03 -0.463033D-01  0.202977D-01  0.151625D-01
     10 -0.162394D+00  0.120204D-02 -0.963661D-01  0.521409D-02  0.151234D-02
     11  0.208494D-01 -0.577301D-02  0.362365D-01  0.573378D-02 -0.498259D-02
     12 -0.706790D-01  0.216624D-01 -0.144942D+00 -0.228789D-01  0.118179D-01
     13 -0.108542D-01 -0.198363D-01 -0.103650D-01 -0.172041D-02  0.254753D-02
     14 -0.503238D-01 -0.119605D+00 -0.892939D-01  0.352067D-02  0.707958D-02
     15 -0.372425D-01 -0.561226D-01 -0.146449D+00  0.313694D-02 -0.224433D-01
     16 -0.842167D-02 -0.279844D-02  0.662885D-02 -0.347205D-03  0.157164D-02
     17  0.474576D-02  0.144637D-02  0.528674D-02  0.472141D-03 -0.728428D-03
     18 -0.109662D-02 -0.186575D-01  0.470903D-02 -0.898528D-03  0.183589D-02
     19  0.598960D-02  0.531477D-03 -0.292133D-01 -0.148231D-03 -0.270256D-02
     20 -0.471705D-02  0.693167D-02 -0.559064D-02 -0.299998D-02  0.259069D-02
     21  0.107594D-01  0.141821D-01 -0.272107D-01 -0.495610D-02 -0.123975D-02
     22 -0.168111D-01 -0.652496D-03  0.839663D-02  0.182200D-02 -0.689884D-03
     23 -0.133602D-02 -0.850688D-02  0.226919D-02  0.891159D-03 -0.764102D-03
     24 -0.118058D-01 -0.619613D-02  0.124059D-01  0.267173D-02 -0.225590D-02
     25 -0.119886D-02 -0.394883D-02  0.275895D-02  0.430514D-03 -0.285306D-03
     26  0.480995D-02 -0.340763D-03  0.174095D-02 -0.898105D-04  0.951558D-04
     27 -0.337829D-02 -0.709389D-03  0.233403D-03 -0.360784D-03 -0.178031D-04
                6             7             8             9            10 
      6  0.285566D+00
      7 -0.216517D-02  0.238721D+00
      8 -0.216891D-02  0.156455D+00  0.159097D+00
      9  0.374026D-02  0.976792D-02  0.522509D-02  0.525252D-01
     10  0.943037D-02 -0.771750D-02  0.891155D-02 -0.962554D-02  0.591776D+00
     11 -0.190202D-02 -0.992526D-02  0.662768D-02 -0.847375D-02 -0.107065D+00
     12 -0.118028D-01  0.144346D-03 -0.374068D-02 -0.648552D-02  0.660347D-01
     13 -0.184907D-02  0.497233D-02 -0.107367D-01 -0.148313D-01 -0.124407D+00
     14  0.122990D-01  0.533282D-02 -0.715477D-02 -0.124975D-01  0.203609D+00
     15 -0.147964D-01 -0.329786D-02 -0.651500D-03 -0.569238D-02 -0.323195D-01
     16  0.487960D-03  0.172861D-02 -0.370609D-02 -0.168801D-02  0.442405D-02
     17 -0.111196D-03 -0.165240D-03  0.123672D-02  0.871160D-03 -0.496081D-02
     18  0.813257D-03  0.177067D-02 -0.172985D-02 -0.597884D-03 -0.494237D-02
     19 -0.243874D-02 -0.150110D-02  0.319964D-02  0.180059D-03  0.159278D-01
     20 -0.147639D-02  0.285663D-02 -0.249554D-02 -0.119439D-02 -0.899975D-01
     21 -0.434356D-02  0.571463D-03 -0.827484D-03  0.177720D-02  0.192138D-01
     22 -0.415985D-03 -0.175863D-02  0.142736D-02 -0.125569D-02 -0.289732D+00
     23 -0.384825D-03 -0.325188D-02  0.278433D-02 -0.341439D-03 -0.212007D-01
     24  0.138019D-02 -0.228405D-02  0.297176D-02  0.110157D-02  0.391543D-01
     25 -0.522993D-05 -0.106937D-02  0.134013D-02  0.786623D-04 -0.330911D-01
     26  0.124776D-03  0.483827D-03 -0.124599D-03  0.430902D-03  0.798840D-02
     27 -0.946306D-04 -0.268709D-03  0.115075D-03 -0.651976D-04  0.942035D-02
               11            12            13            14            15 
     11  0.275897D+00
     12  0.544911D-02  0.235771D+00
     13  0.668881D-01  0.175298D-01  0.169167D+00
     14 -0.224340D+00 -0.125824D+00 -0.227902D-01  0.646747D+00
     15 -0.318971D-01  0.924697D-01  0.180984D-01  0.197188D+00  0.187055D+00
     16  0.246750D-01  0.886934D-02 -0.269229D-01 -0.618460D-01 -0.243446D-01
     17 -0.143198D-01 -0.610416D-02 -0.518936D-01 -0.352929D+00 -0.421975D-01
     18  0.433873D-02 -0.535930D-02 -0.102932D-01 -0.258494D-01 -0.359854D-01
     19 -0.835752D-02 -0.240991D-01  0.879472D-02 -0.867600D-01  0.688136D-01
     20  0.253537D-01  0.113753D+00  0.721354D-02  0.328610D-01 -0.451414D-01
     21  0.839517D-02 -0.928124D-01 -0.910180D-02  0.502911D-01 -0.771138D-01
     22  0.407708D-01  0.414821D-01 -0.242743D-01  0.609326D-02  0.698389D-02
     23 -0.614213D-01 -0.182626D-01  0.281150D-01  0.123813D-01  0.411995D-03
     24 -0.168895D-01 -0.679609D-01  0.816080D-02 -0.823377D-02  0.253099D-02
     25 -0.335697D-01 -0.164033D-01  0.524527D-02  0.316392D-02  0.171652D-03
     26  0.295801D-02  0.124974D-02  0.492621D-03  0.495924D-02  0.853460D-03
     27  0.474292D-02  0.112267D-02  0.265144D-02  0.192079D-02 -0.201906D-02
               16            17            18            19            20 
     16  0.274975D-01
     17  0.525377D-01  0.353609D+00
     18  0.124505D-01  0.445893D-01  0.278525D-01
     19 -0.247650D-02 -0.404028D-02  0.652879D-02 -0.194655D-01
     20 -0.630121D-02  0.772820D-02 -0.366267D-02  0.999339D-01 -0.683228D-01
     21 -0.790281D-03 -0.973590D-03  0.405584D-02 -0.173987D-01 -0.670415D-01
     22  0.578701D-02  0.200827D-02 -0.372689D-02 -0.618193D-02 -0.492744D-02
     23 -0.300671D-02  0.481697D-02 -0.614228D-03 -0.143211D-02 -0.423187D-02
     24 -0.791895D-03 -0.118105D-02  0.416569D-02 -0.556757D-02  0.104409D-01
     25 -0.126900D-02  0.129606D-02  0.207687D-03 -0.938952D-03 -0.106090D-02
     26 -0.112588D-02 -0.860790D-03 -0.250302D-03 -0.372607D-03 -0.415044D-03
     27 -0.821825D-03 -0.179678D-03  0.346291D-03  0.319502D-02 -0.866309D-04
               21            22            23            24            25 
     21  0.187739D+00
     22  0.184030D-02  0.448529D+00
     23 -0.234411D-02  0.142951D+00  0.410927D+00
     24  0.871493D-02  0.254778D-01  0.175672D+00  0.105687D+00
     25 -0.137982D-03 -0.117379D+00 -0.141730D+00 -0.550154D-01  0.149271D+00
     26 -0.441913D-03 -0.186981D+00 -0.355985D+00 -0.154328D+00  0.174794D+00
     27 -0.806033D-03 -0.787822D-01 -0.156406D+00 -0.680257D-01  0.683450D-01
               26            27 
     26  0.349714D+00
     27  0.150620D+00  0.693083D-01
 Leave Link  716 at Fri Oct 23 20:20:16 2009, MaxMem= 1258291200 cpu:       0.5
 (Enter /home/g09/l9999.exe)
 B after Tr=    -0.279218   -0.057784    0.235417
         Rot=    0.986984   -0.106778   -0.033824   -0.115398 Ang=  18.51 deg.
 Final structure in terms of initial Z-matrix:
 C
 H,1,hc2
 H,1,hc3,2,hch3
 C,1,cc4,2,cch4,3,dih4,0
 C,4,cc5,1,ccc5,3,dih5,0
 H,5,hc6,4,hcc6,1,dih6,0
 H,5,hc7,4,hcc7,1,dih7,0
 O,4,oc8,1,occ8,3,dih8,0
 H,8,ho9,1,hoc9,3,dih9,0
      Variables:
 hc2=1.09555482
 hc3=1.09296028
 hch3=115.41986083
 cc4=1.50068684
 cch4=113.10442841
 dih4=-148.21714155
 cc5=1.47169955
 ccc5=61.7405814
 dih5=109.74181374
 hc6=1.09150978
 hcc6=132.4331532
 dih6=124.58206966
 hc7=1.32566959
 hcc7=53.95648818
 dih7=-119.37369837
 oc8=1.38268206
 occ8=129.59781493
 dih8=-125.30993311
 ho9=0.96977261
 hoc9=114.58346202
 dih9=153.21716968
 1\1\ UCHICAGO-N011\Freq\UMP2-FC\Aug-CC-pVDZ\C3H5O1(2)\BENJFITZ\23-Oct-
 2009\0\\#P ump2/aug-cc-pvdz 5D 7F SCF(xqc,tight) Opt(Maxcycle=50,qst2,
 tight,calcall) nosymm MaxDisk=4000MW\\cyclopropanol w/ radical at OH C
 \\0,2\C,0.0850124853,-0.160181866,-0.1339063165\H,-0.2378527742,-0.597
 4424876,0.8173042455\H,0.9476806495,0.5082471354,-0.0741694677\C,-1.04
 7468417,0.0675111938,-1.0918749292\C,-0.1438378894,-1.0676495597,-1.33
 83733931\H,-0.3223828004,-2.1368532917,-1.4661180333\H,-0.3505906879,-
 0.0437165032,-2.154592869\O,-2.4037805272,0.1719797787,-0.8442594151\H
 ,-2.8361984699,-0.6265313097,-1.1846322616\\Version=EM64L-G09RevA.02\H
 F=-191.1965878\MP2=-191.8175729\PUHF=-191.1928352\PMP2-0=-191.8134422\
 S2=0.798527\S2-1=0.808364\S2A=0.750484\RMSD=9.544e-09\RMSF=9.983e-08\Z
 eroPoint=0.0672445\Thermal=0.0717768\Dipole=-0.1277656,-0.6425308,-0.1
 318118\DipoleDeriv=0.0966145,0.0360455,0.0085635,0.1145654,0.1821042,0
 .0833922,-0.0605257,0.0052067,0.0526745,0.0707932,-0.0863429,0.0264304
 ,-0.0885757,0.0951842,0.0367403,-0.0045389,0.0312129,-0.0527486,-0.052
 3952,-0.0711223,-0.0694272,-0.0823954,-0.0093,-0.047985,-0.0287102,-0.
 0251426,-0.0010066,1.1670057,-0.2280513,-0.191959,-0.0570926,-0.225444
 6,0.1920109,-0.3505909,0.3548801,0.2305768,-0.5197051,0.1151017,0.2560
 483,0.0892175,-0.1337899,-0.2093067,0.3749649,-0.283009,-0.2523845,0.1
 764087,-0.11622,-0.0838573,-0.0118582,-0.0406861,-0.0273691,-0.0820008
 ,0.0267444,0.1071087,0.0637699,0.014293,-0.0031854,0.0899215,0.1079732
 ,-0.0180406,-0.0141055,-0.0311508,0.0165451,-1.2864885,0.301944,0.0481
 675,-0.0328318,-0.149931,0.0445764,0.1146224,0.0116051,-0.3542635,0.28
 39968,0.0343524,0.0092192,-0.0209507,0.1738901,-0.0540183,0.0508847,-0
 .0903466,0.2534981\Polar=48.4097283,-3.5418747,44.359859,0.4239327,1.9
 541091,42.2944248\PG=C01 [X(C3H5O1)]\NImag=1\\0.49635458,0.22347822,0.
 36724118,0.04428472,-0.05728927,0.60801911,-0.07302315,-0.04855037,0.0
 7811391,0.07150638,-0.04783225,-0.08655685,0.10583389,0.04823946,0.088
 40088,0.07208187,0.10231288,-0.26046265,-0.07512602,-0.10869335,0.2855
 6637,-0.22964111,-0.14942533,-0.00423861,-0.00373400,-0.00236098,-0.00
 216517,0.23872076,-0.14967422,-0.15483654,0.00080649,-0.00721705,-0.00
 513434,-0.00216891,0.15645540,0.15909705,-0.00292380,0.00081742,-0.046
 30329,0.02029773,0.01516250,0.00374026,0.00976792,0.00522509,0.0525252
 5,-0.16239408,0.00120204,-0.09636613,0.00521409,0.00151234,0.00943037,
 -0.00771750,0.00891155,-0.00962554,0.59177606,0.02084940,-0.00577301,0
 .03623653,0.00573378,-0.00498259,-0.00190202,-0.00992526,0.00662768,-0
 .00847375,-0.10706452,0.27589727,-0.07067900,0.02166244,-0.14494224,-0
 .02287887,0.01181787,-0.01180281,0.00014435,-0.00374068,-0.00648552,0.
 06603474,0.00544911,0.23577086,-0.01085416,-0.01983628,-0.01036500,-0.
 00172041,0.00254753,-0.00184907,0.00497233,-0.01073673,-0.01483133,-0.
 12440715,0.06688806,0.01752981,0.16916651,-0.05032380,-0.11960519,-0.0
 8929387,0.00352067,0.00707958,0.01229903,0.00533282,-0.00715477,-0.012
 49751,0.20360925,-0.22433994,-0.12582440,-0.02279018,0.64674736,-0.037
 24247,-0.05612256,-0.14644858,0.00313694,-0.02244334,-0.01479642,-0.00
 329786,-0.00065150,-0.00569238,-0.03231949,-0.03189714,0.09246970,0.01
 809836,0.19718800,0.18705500,-0.00842167,-0.00279844,0.00662885,-0.000
 34721,0.00157164,0.00048796,0.00172861,-0.00370609,-0.00168801,0.00442
 405,0.02467503,0.00886934,-0.02692285,-0.06184599,-0.02434462,0.027497
 55,0.00474576,0.00144637,0.00528674,0.00047214,-0.00072843,-0.00011120
 ,-0.00016524,0.00123672,0.00087116,-0.00496081,-0.01431977,-0.00610416
 ,-0.05189356,-0.35292861,-0.04219753,0.05253766,0.35360933,-0.00109662
 ,-0.01865748,0.00470903,-0.00089853,0.00183589,0.00081326,0.00177067,-
 0.00172985,-0.00059788,-0.00494237,0.00433873,-0.00535930,-0.01029321,
 -0.02584939,-0.03598543,0.01245048,0.04458930,0.02785252,0.00598960,0.
 00053148,-0.02921333,-0.00014823,-0.00270256,-0.00243874,-0.00150110,0
 .00319964,0.00018006,0.01592785,-0.00835752,-0.02409909,0.00879472,-0.
 08675997,0.06881360,-0.00247650,-0.00404028,0.00652879,-0.01946546,-0.
 00471705,0.00693167,-0.00559064,-0.00299998,0.00259069,-0.00147639,0.0
 0285663,-0.00249554,-0.00119439,-0.08999752,0.02535368,0.11375271,0.00
 721354,0.03286103,-0.04514138,-0.00630121,0.00772820,-0.00366267,0.099
 93393,-0.06832282,0.01075936,0.01418207,-0.02721069,-0.00495610,-0.001
 23975,-0.00434356,0.00057146,-0.00082748,0.00177720,0.01921378,0.00839
 517,-0.09281244,-0.00910180,0.05029112,-0.07711383,-0.00079028,-0.0009
 7359,0.00405584,-0.01739874,-0.06704151,0.18773859,-0.01681114,-0.0006
 5250,0.00839663,0.00182200,-0.00068988,-0.00041598,-0.00175863,0.00142
 736,-0.00125569,-0.28973224,0.04077078,0.04148207,-0.02427426,0.006093
 26,0.00698389,0.00578701,0.00200827,-0.00372689,-0.00618193,-0.0049274
 4,0.00184030,0.44852856,-0.00133602,-0.00850688,0.00226919,0.00089116,
 -0.00076410,-0.00038482,-0.00325188,0.00278433,-0.00034144,-0.02120074
 ,-0.06142132,-0.01826263,0.02811498,0.01238129,0.00041199,-0.00300671,
 0.00481697,-0.00061423,-0.00143211,-0.00423187,-0.00234411,0.14295088,
 0.41092660,-0.01180577,-0.00619613,0.01240591,0.00267173,-0.00225590,0
 .00138019,-0.00228405,0.00297176,0.00110157,0.03915429,-0.01688954,-0.
 06796092,0.00816080,-0.00823377,0.00253099,-0.00079189,-0.00118105,0.0
 0416569,-0.00556757,0.01044090,0.00871493,0.02547784,0.17567172,0.1056
 8736,-0.00119886,-0.00394883,0.00275895,0.00043051,-0.00028531,-0.0000
 0523,-0.00106937,0.00134013,0.00007866,-0.03309109,-0.03356974,-0.0164
 0335,0.00524527,0.00316392,0.00017165,-0.00126900,0.00129606,0.0002076
 9,-0.00093895,-0.00106090,-0.00013798,-0.11737939,-0.14172957,-0.05501
 538,0.14927087,0.00480995,-0.00034076,0.00174095,-0.00008981,0.0000951
 6,0.00012478,0.00048383,-0.00012460,0.00043090,0.00798840,0.00295801,0
 .00124974,0.00049262,0.00495924,0.00085346,-0.00112588,-0.00086079,-0.
 00025030,-0.00037261,-0.00041504,-0.00044191,-0.18698074,-0.35598503,-
 0.15432800,0.17479424,0.34971382,-0.00337829,-0.00070939,0.00023340,-0
 .00036078,-0.00001780,-0.00009463,-0.00026871,0.00011508,-0.00006520,0
 .00942035,0.00474292,0.00112267,0.00265144,0.00192079,-0.00201906,-0.0
 0082183,-0.00017968,0.00034629,0.00319502,-0.00008663,-0.00080603,-0.0
 7878218,-0.15640567,-0.06802571,0.06834499,0.15062039,0.06930826\\0.00
 000013,-0.00000015,0.00000012,-0.00000003,0.00000004,-0.00000002,-0.00
 000005,0.,-0.00000006,-0.00000023,-0.00000009,-0.00000009,0.00000004,0
 .00000016,-0.00000003,-0.00000007,-0.00000003,0.00000009,0.00000009,0.
 00000008,-0.00000004,0.00000002,-0.00000019,0.,0.00000009,0.00000017,0
 .00000003\\\@


 A COMPLEXITY IS MERELY A DISARRANGEMENT OF SIMPLICITIES.

                                    -- G. O. ABELL IN "EXPLORATION OF THE UNIVERSE"
 Job cpu time:  1 days  2 hours 23 minutes 12.6 seconds.
 File lengths (MBytes):  RWF=   3352 Int=      0 D2E=      0 Chk=      3 Scr=      1
 Normal termination of Gaussian 09 at Fri Oct 23 20:20:17 2009.
