 Entering Gaussian System, Link 0=g09
 Input=/home/benjfitz/c3h5o-int7-cis-cis-ts-int8_irc-r-ub3lyp-avdz-a2.com
 Output=/home/benjfitz/c3h5o-int7-cis-cis-ts-int8_irc-r-ub3lyp-avdz-a2.log
 Initial command:
 /home/g09/l1.exe /scratch/benjfitz/Gau-17913.inp -scrdir=/scratch/benjfitz/
 Entering Link 1 = /home/g09/l1.exe PID=     17914.
  
 Copyright (c) 1988,1990,1992,1993,1995,1998,2003,2009, Gaussian, Inc.
                  All Rights Reserved.
  
 This is part of the Gaussian(R) 09 program.  It is based on
 the Gaussian(R) 03 system (copyright 2003, Gaussian, Inc.),
 the Gaussian(R) 98 system (copyright 1998, Gaussian, Inc.),
 the Gaussian(R) 94 system (copyright 1995, Gaussian, Inc.),
 the Gaussian 92(TM) system (copyright 1992, Gaussian, Inc.),
 the Gaussian 90(TM) system (copyright 1990, Gaussian, Inc.),
 the Gaussian 88(TM) system (copyright 1988, Gaussian, Inc.),
 the Gaussian 86(TM) system (copyright 1986, Carnegie Mellon
 University), and the Gaussian 82(TM) system (copyright 1983,
 Carnegie Mellon University). Gaussian is a federally registered
 trademark of Gaussian, Inc.
  
 This software contains proprietary and confidential information,
 including trade secrets, belonging to Gaussian, Inc.
  
 This software is provided under written license and may be
 used, copied, transmitted, or stored only in accord with that
 written license.
  
 The following legend is applicable only to US Government
 contracts under FAR:
  
                    RESTRICTED RIGHTS LEGEND
  
 Use, reproduction and disclosure by the US Government is
 subject to restrictions as set forth in subparagraphs (a)
 and (c) of the Commercial Computer Software - Restricted
 Rights clause in FAR 52.227-19.
  
 Gaussian, Inc.
 340 Quinnipiac St., Bldg. 40, Wallingford CT 06492
  
  
 ---------------------------------------------------------------
 Warning -- This program may not be used in any manner that
 competes with the business of Gaussian, Inc. or will provide
 assistance to any competitor of Gaussian, Inc.  The licensee
 of this program is prohibited from giving any competitor of
 Gaussian, Inc. access to this program.  By using this program,
 the user acknowledges that Gaussian, Inc. is engaged in the
 business of creating and licensing software in the field of
 computational chemistry and represents and warrants to the
 licensee that it is not a competitor of Gaussian, Inc. and that
 it will not use this program in any manner prohibited above.
 ---------------------------------------------------------------
  

 Cite this work as:
 Gaussian 09, Revision A.02,
 M. J. Frisch, G. W. Trucks, H. B. Schlegel, G. E. Scuseria, 
 M. A. Robb, J. R. Cheeseman, G. Scalmani, V. Barone, B. Mennucci, 
 G. A. Petersson, H. Nakatsuji, M. Caricato, X. Li, H. P. Hratchian, 
 A. F. Izmaylov, J. Bloino, G. Zheng, J. L. Sonnenberg, M. Hada, 
 M. Ehara, K. Toyota, R. Fukuda, J. Hasegawa, M. Ishida, T. Nakajima, 
 Y. Honda, O. Kitao, H. Nakai, T. Vreven, J. A. Montgomery, Jr., 
 J. E. Peralta, F. Ogliaro, M. Bearpark, J. J. Heyd, E. Brothers, 
 K. N. Kudin, V. N. Staroverov, R. Kobayashi, J. Normand, 
 K. Raghavachari, A. Rendell, J. C. Burant, S. S. Iyengar, J. Tomasi, 
 M. Cossi, N. Rega, J. M. Millam, M. Klene, J. E. Knox, J. B. Cross, 
 V. Bakken, C. Adamo, J. Jaramillo, R. Gomperts, R. E. Stratmann, 
 O. Yazyev, A. J. Austin, R. Cammi, C. Pomelli, J. W. Ochterski, 
 R. L. Martin, K. Morokuma, V. G. Zakrzewski, G. A. Voth, 
 P. Salvador, J. J. Dannenberg, S. Dapprich, A. D. Daniels, 
 O. Farkas, J. B. Foresman, J. V. Ortiz, J. Cioslowski, 
 and D. J. Fox, Gaussian, Inc., Wallingford CT, 2009.
 
 ******************************************
 Gaussian 09:  EM64L-G09RevA.02 11-Jun-2009
                29-Oct-2009 
 ******************************************
 %Mem=1200MW
 %NProcShared=8
 Will use up to    8 processors via shared memory.
 %RWF=/scratch/benjfitz/a,5000MW
 %NoSave
 %chk=/home/benjfitz/c3h5o-int7-cis-cis-ts-int8_irc-r-ub3lyp-avdz-a2.chk
 ----------------------------------------------------------------------
 #P ub3lyp/aug-cc-pvdz 5D 7F SCF(xqc,tight) int(grid=ultrafine) irc(Max
 cycle=25,rcfc,reverse,maxpoints=40,stepsize=10) guess(read) geom(allch
 eck) nosymm MaxDisk=5000MW
 ----------------------------------------------------------------------
 1/6=25,10=5,14=-1,18=20,22=2,26=3,29=7,38=1,39=10,42=40,44=3/1,23;
 2/9=110,12=2,15=1,29=1,40=1/2;
 3/5=16,7=10,8=11,11=2,14=-4,16=1,25=1,30=1,71=2,74=-5,75=-5,116=2/1,2,3;
 4/5=1/1;
 5/5=2,8=3,13=1,32=2,38=6/2,8;
 8/6=4,10=90,11=11/1;
 11/6=1,8=1,9=11,15=111,16=1,31=1/1,2,10;
 10/6=1,31=1/2;
 6/7=2,8=2,9=2,10=2,28=1/1;
 7/10=1,25=1,30=1/1,2,3,16;
 1/6=25,14=-1,18=20,22=2,39=10,42=40,44=3/23(3);
 2/9=110,15=1,29=1/2;
 7/9=1,25=1,30=1,44=-1/16;
 99//99;
 2/9=110,15=1,29=1/2;
 3/5=16,7=10,8=11,11=2,14=-2,16=1,25=1,30=1,71=2,74=-5,75=-5,116=2/1,2,3;
 4/5=5,16=3/1;
 5/5=2,8=3,13=1,32=2,38=5/2,8;
 8/6=4,10=90,11=11/1;
 11/6=1,8=1,9=11,15=111,16=1,31=1/1,2,10;
 10/6=1,31=1/2;
 7/10=1,25=1,30=1/1,2,3,16;
 1/6=25,14=-1,18=20,22=2,39=10,42=40,44=3/23(-8);
 2/9=110,15=1,29=1/2;
 6/7=2,8=2,9=2,10=2,19=2,28=1/1;
 7/9=1,25=1,30=1,44=-1/16;
 99/9=1/99;
 Leave Link    1 at Thu Oct 29 19:44:15 2009, MaxMem= 1258291200 cpu:       0.8
 (Enter /home/g09/l101.exe)
 --------------------
 int7 cis cis ts int8
 --------------------
 Redundant internal coordinates taken from checkpoint file:
 /home/benjfitz/c3h5o-int7-cis-cis-ts-int8_irc-r-ub3lyp-avdz-a2.chk
 Charge =  0 Multiplicity = 2
 C,0,0.1355373257,0.0604907065,-0.0742292793
 C,0,0.0293216663,0.0692590477,1.3594790643
 C,0,0.8689530356,-0.1630221566,2.3835980922
 O,0,2.2131776151,0.1472691674,2.4024333055
 H,0,0.5523262247,-0.5593280334,3.346832294
 H,0,0.9544577514,-0.4371039578,-0.6112735529
 H,0,-0.7383959226,-0.665692136,0.6067555352
 H,0,-0.5146934366,0.7138779009,-0.6578109251
 H,0,2.4679110384,0.5104489998,1.5427873921
 Recover connectivity data from disk.
                    Isotopes and Nuclear Properties:
 (Nuclear quadrupole moments (NQMom) in fm**2, nuclear magnetic moments (NMagM)
  in nuclear magnetons)

  Atom         1           2           3           4           5           6           7           8           9
 IAtWgt=          12          12          12          16           1           1           1           1           1
 AtmWgt=  12.0000000  12.0000000  12.0000000  15.9949146   1.0078250   1.0078250   1.0078250   1.0078250   1.0078250
 NucSpn=           0           0           0           0           1           1           1           1           1
 AtZEff=  -3.6000000  -3.6000000  -3.6000000  -5.6000000  -1.0000000  -1.0000000  -1.0000000  -1.0000000  -1.0000000
 NQMom=    0.0000000   0.0000000   0.0000000   0.0000000   0.0000000   0.0000000   0.0000000   0.0000000   0.0000000
 NMagM=    0.0000000   0.0000000   0.0000000   0.0000000   2.7928460   2.7928460   2.7928460   2.7928460   2.7928460
 Leave Link  101 at Thu Oct 29 19:44:15 2009, MaxMem= 1258291200 cpu:       1.1
 (Enter /home/g09/l123.exe)
 IRC-IRC-IRC-IRC-IRC-IRC-IRC-IRC-IRC-IRC-IRC-IRC-IRC-IRC-IRC-IRC-IRC-IRC
 ------------------------------------------------------------------------
 INPUT DATA FOR L123
 ------------------------------------------------------------------------
 GENERAL PARAMETERS:
 Rxn path following direction = Reverse
 Maximum points per path      =  40
 Step size                    =   0.100 bohr
 Integration scheme           = HPC                                 
    Redo corrector integration= Yes                                 
    Max correction cycles     =  25
 Initial Hessian              = ReadFC from chk
 Hessian eveluation           = All updating
    Hessian updating method   = Bofill                              
 ------------------------------------------------------------------------
          ******** Start new reaction path calculation ********
 RCFC Option Requested - Data Read From Chk File:
 /home/benjfitz/c3h5o-int7-cis-cis-ts-int8_irc-r-ub3lyp-avdz-a2.chk
   Energy From Chk =   -192.4071610

 Current Structure is TS -> diagonalize the Hessian.
 Supplied step size of   0.1000 bohr.
    Integration on MW PES will use step size of   0.1062 sqrt(amu)*bohr.
 Point Number:   0          Path Number:   1
 Calculating another point on the path.
 Point Number  1 in REVERSE path direction.
 Using LQA Reaction Path Following.
 IRC-IRC-IRC-IRC-IRC-IRC-IRC-IRC-IRC-IRC-IRC-IRC-IRC-IRC-IRC-IRC-IRC-IRC
 Leave Link  123 at Thu Oct 29 19:44:15 2009, MaxMem= 1258291200 cpu:       0.1
 (Enter /home/g09/l202.exe)
                          Input orientation:                          
 ---------------------------------------------------------------------
 Center     Atomic      Atomic             Coordinates (Angstroms)
 Number     Number       Type             X           Y           Z
 ---------------------------------------------------------------------
      1          6           0       -0.747608    0.035995   -1.596019
      2          6           0       -0.858645    0.040309   -0.163225
      3          6           0       -0.017141   -0.189776    0.863052
      4          8           0        1.326501    0.120837    0.882029
      5          1           0       -0.333896   -0.586459    1.826016
      6          1           0        0.070247   -0.461918   -2.133513
      7          1           0       -1.635761   -0.684289   -0.863338
      8          1           0       -1.405123    0.682226   -2.178985
      9          1           0        1.581491    0.483766    0.022194
 ---------------------------------------------------------------------
                    Distance matrix (angstroms):
                    1          2          3          4          5
     1  C    0.000000
     2  C    1.437096   0.000000
     3  C    2.575186   1.346964   0.000000
     4  O    3.232622   2.423614   1.379208   0.000000
     5  H    3.502703   2.150646   1.088573   2.036737   0.000000
     6  H    1.098046   2.235421   3.010166   3.318324   3.982049
     7  H    1.358104   1.272442   2.417621   3.531222   2.989489
     8  H    1.090775   2.184945   3.455556   4.140861   4.335565
     9  H    2.871205   2.487026   1.927778   0.967499   2.840399
                    6          7          8          9
     6  H    0.000000
     7  H    2.138518   0.000000
     8  H    1.867579   1.910886   0.000000
     9  H    2.797365   3.535425   3.715432   0.000000
 Symmetry turned off by external request.
 Stoichiometry    C3H5O(2)
 Framework group  C1[X(C3H5O)]
 Deg. of freedom    21
 Full point group                 C1      NOp   1
 Rotational constants (GHZ):     23.1702086      5.0982578      4.3010752
 Leave Link  202 at Thu Oct 29 19:44:15 2009, MaxMem= 1258291200 cpu:       0.1
 (Enter /home/g09/l301.exe)
 Standard basis: Aug-CC-pVDZ (5D, 7F)
 Ernie: Thresh=  0.10000D-02 Tol=  0.10000D-05 Strict=F.
 Ernie:  8 primitive shells out of 135 were deleted.
 Integral buffers will be    131072 words long.
 Raffenetti 2 integral format.
 Two-electron integral symmetry is turned off.
   137 basis functions,   227 primitive gaussians,   145 cartesian basis functions
    16 alpha electrons       15 beta electrons
       nuclear repulsion energy       109.5350607544 Hartrees.
 IExCor=  402 DFT=T Ex+Corr=B3LYP ExCW=0 ScaHFX=  0.200000
 ScaDFX=  0.800000  0.720000  1.000000  0.810000 ScalE2=  1.000000  1.000000
 IRadAn=      5 IRanWt=     -1 IRanGd=            0 ICorTp=0
 NAtoms=    9 NActive=    9 NUniq=    9 SFac= 7.50D-01 NAtFMM=   80 NAOKFM=F Big=F
 Leave Link  301 at Thu Oct 29 19:44:15 2009, MaxMem= 1258291200 cpu:       0.8
 (Enter /home/g09/l302.exe)
 NPDir=0 NMtPBC=     1 NCelOv=     1 NCel=       1 NClECP=     1 NCelD=      1
         NCelK=      1 NCelE2=     1 NClLst=     1 CellRange=     0.0.
 One-electron integrals computed using PRISM.
 NBasis=   137 RedAO= T  NBF=   137
 NBsUse=   137 1.00D-06 NBFU=   137
 Precomputing XC quadrature grid using
 IXCGrd= 2 IRadAn=           5 IRanWt=          -1 IRanGd=           0 AccXCQ= 1.00D-10.
 NRdTot=     769 NPtTot=      206766 NUsed=      212279 NTot=      212311
 NSgBfM=   145   145   145   145   145 NAtAll=     9     9.
 Leave Link  302 at Thu Oct 29 19:44:15 2009, MaxMem= 1258291200 cpu:       2.4
 (Enter /home/g09/l303.exe)
 DipDrv:  MaxL=1.
 Leave Link  303 at Thu Oct 29 19:44:16 2009, MaxMem= 1258291200 cpu:       0.7
 (Enter /home/g09/l401.exe)
 Initial guess read from the checkpoint file:  /home/benjfitz/c3h5o-int7-cis-cis-
 ts-int8_irc-r-ub3lyp-avdz-a2.chk
 B after Tr=    -1.677114   -0.050944   -2.870561
         Rot=    1.000000    0.000344   -0.000336    0.000322 Ang=   0.07 deg.
 Guess basis will be translated and rotated to current coordinates.
 Initial guess <Sx>= 0.0000 <Sy>= 0.0000 <Sz>= 0.5000 <S**2>= 0.7588 S= 0.5044
 Leave Link  401 at Thu Oct 29 19:44:16 2009, MaxMem= 1258291200 cpu:       2.1
 (Enter /home/g09/l502.exe)
 UHF open shell SCF:
 Requested convergence on RMS density matrix=1.00D-08 within  64 cycles.
 Requested convergence on MAX density matrix=1.00D-06.
 Requested convergence on             energy=1.00D-06.
 No special actions if energy rises.
 Using DIIS extrapolation, IDIIS=  1040.
 Two-electron integral symmetry not used.
       212185 words used for storage of precomputed grid.
 Keep R1 and R2 ints in memory in canonical form, NReq=113891672.
 IEnd=      282846 IEndB=      282846 NGot=  1258291200 MDV=  1145980911
 LenX=  1145980911 LenY=  1145959445
 Symmetry not used in FoFDir.
 MinBra= 0 MaxBra= 2 Meth= 1.
 IRaf=       0 NMat=   1 IRICut=       1 DoRegI=T DoRafI=F ISym2E= 0 JSym2E=0.

 Cycle   1  Pass 1  IDiag  1:
 E= -192.406759777555    
 DIIS: error= 1.20D-03 at cycle   1 NSaved=   1.
 NSaved= 1 IEnMin= 1 EnMin= -192.406759777555     IErMin= 1 ErrMin= 1.20D-03
 ErrMax= 1.20D-03 EMaxC= 1.00D-01 BMatC= 1.57D-03 BMatP= 1.57D-03
 IDIUse=3 WtCom= 9.88D-01 WtEn= 1.20D-02
 Coeff-Com:  0.100D+01
 Coeff-En:   0.100D+01
 Coeff:      0.100D+01
 Gap=     0.160 Goal=   None    Shift=    0.000
 Gap=     0.204 Goal=   None    Shift=    0.000
 GapD=    0.160 DampG=1.000 DampE=1.000 DampFc=1.0000 IDamp=-1.
 RMSDP=7.33D-04 MaxDP=1.45D-02              OVMax= 3.14D-02

 Cycle   2  Pass 1  IDiag  1:
 E= -192.407769448425     Delta-E=       -0.001009670870 Rises=F Damp=F
 DIIS: error= 3.81D-04 at cycle   2 NSaved=   2.
 NSaved= 2 IEnMin= 2 EnMin= -192.407769448425     IErMin= 2 ErrMin= 3.81D-04
 ErrMax= 3.81D-04 EMaxC= 1.00D-01 BMatC= 1.35D-04 BMatP= 1.57D-03
 IDIUse=3 WtCom= 9.96D-01 WtEn= 3.81D-03
 Coeff-Com:  0.125D-01 0.987D+00
 Coeff-En:   0.000D+00 0.100D+01
 Coeff:      0.125D-01 0.988D+00
 Gap=     0.159 Goal=   None    Shift=    0.000
 Gap=     0.151 Goal=   None    Shift=    0.000
 RMSDP=2.20D-04 MaxDP=9.74D-03 DE=-1.01D-03 OVMax= 1.11D-02

 Cycle   3  Pass 1  IDiag  1:
 E= -192.407829798839     Delta-E=       -0.000060350414 Rises=F Damp=F
 DIIS: error= 3.22D-04 at cycle   3 NSaved=   3.
 NSaved= 3 IEnMin= 3 EnMin= -192.407829798839     IErMin= 3 ErrMin= 3.22D-04
 ErrMax= 3.22D-04 EMaxC= 1.00D-01 BMatC= 1.82D-04 BMatP= 1.35D-04
 IDIUse=3 WtCom= 3.58D-01 WtEn= 6.42D-01
 Coeff-Com: -0.543D-01 0.580D+00 0.475D+00
 Coeff-En:   0.000D+00 0.000D+00 0.100D+01
 Coeff:     -0.194D-01 0.207D+00 0.812D+00
 Gap=     0.159 Goal=   None    Shift=    0.000
 Gap=     0.152 Goal=   None    Shift=    0.000
 RMSDP=1.66D-04 MaxDP=6.86D-03 DE=-6.04D-05 OVMax= 1.17D-02

 Cycle   4  Pass 1  IDiag  1:
 E= -192.407807086438     Delta-E=        0.000022712400 Rises=F Damp=F
 DIIS: error= 4.78D-04 at cycle   4 NSaved=   4.
 NSaved= 4 IEnMin= 3 EnMin= -192.407829798839     IErMin= 3 ErrMin= 3.22D-04
 ErrMax= 4.78D-04 EMaxC= 1.00D-01 BMatC= 3.41D-04 BMatP= 1.35D-04
 IDIUse=3 WtCom= 3.14D-01 WtEn= 6.86D-01
 Coeff-Com: -0.235D-01 0.127D-01 0.594D+00 0.417D+00
 Coeff-En:   0.000D+00 0.000D+00 0.569D+00 0.431D+00
 Coeff:     -0.737D-02 0.400D-02 0.577D+00 0.426D+00
 Gap=     0.158 Goal=   None    Shift=    0.000
 Gap=     0.152 Goal=   None    Shift=    0.000
 RMSDP=9.53D-05 MaxDP=4.61D-03 DE= 2.27D-05 OVMax= 5.21D-03

 Cycle   5  Pass 1  IDiag  1:
 E= -192.407895459226     Delta-E=       -0.000088372788 Rises=F Damp=F
 DIIS: error= 9.89D-05 at cycle   5 NSaved=   5.
 NSaved= 5 IEnMin= 5 EnMin= -192.407895459226     IErMin= 5 ErrMin= 9.89D-05
 ErrMax= 9.89D-05 EMaxC= 1.00D-01 BMatC= 1.05D-05 BMatP= 1.35D-04
 IDIUse=1 WtCom= 1.00D+00 WtEn= 0.00D+00
 Coeff-Com:  0.574D-02-0.214D+00 0.240D+00 0.292D+00 0.677D+00
 Coeff:      0.574D-02-0.214D+00 0.240D+00 0.292D+00 0.677D+00
 Gap=     0.159 Goal=   None    Shift=    0.000
 Gap=     0.152 Goal=   None    Shift=    0.000
 RMSDP=4.32D-05 MaxDP=1.20D-03 DE=-8.84D-05 OVMax= 2.59D-03

 Cycle   6  Pass 1  IDiag  1:
 E= -192.407901176474     Delta-E=       -0.000005717248 Rises=F Damp=F
 DIIS: error= 3.48D-05 at cycle   6 NSaved=   6.
 NSaved= 6 IEnMin= 6 EnMin= -192.407901176474     IErMin= 6 ErrMin= 3.48D-05
 ErrMax= 3.48D-05 EMaxC= 1.00D-01 BMatC= 1.53D-06 BMatP= 1.05D-05
 IDIUse=1 WtCom= 1.00D+00 WtEn= 0.00D+00
 Coeff-Com:  0.704D-02-0.103D+00-0.193D-01 0.340D-01 0.330D+00 0.751D+00
 Coeff:      0.704D-02-0.103D+00-0.193D-01 0.340D-01 0.330D+00 0.751D+00
 Gap=     0.159 Goal=   None    Shift=    0.000
 Gap=     0.152 Goal=   None    Shift=    0.000
 RMSDP=1.68D-05 MaxDP=4.79D-04 DE=-5.72D-06 OVMax= 1.14D-03

 Cycle   7  Pass 1  IDiag  1:
 E= -192.407902171410     Delta-E=       -0.000000994936 Rises=F Damp=F
 DIIS: error= 1.93D-05 at cycle   7 NSaved=   7.
 NSaved= 7 IEnMin= 7 EnMin= -192.407902171410     IErMin= 7 ErrMin= 1.93D-05
 ErrMax= 1.93D-05 EMaxC= 1.00D-01 BMatC= 2.78D-07 BMatP= 1.53D-06
 IDIUse=1 WtCom= 1.00D+00 WtEn= 0.00D+00
 Coeff-Com:  0.165D-02 0.165D-02-0.517D-01-0.479D-01 0.116D-01 0.296D+00
 Coeff-Com:  0.788D+00
 Coeff:      0.165D-02 0.165D-02-0.517D-01-0.479D-01 0.116D-01 0.296D+00
 Coeff:      0.788D+00
 Gap=     0.159 Goal=   None    Shift=    0.000
 Gap=     0.152 Goal=   None    Shift=    0.000
 RMSDP=7.63D-06 MaxDP=3.84D-04 DE=-9.95D-07 OVMax= 5.73D-04

 Cycle   8  Pass 1  IDiag  1:
 E= -192.407902436170     Delta-E=       -0.000000264760 Rises=F Damp=F
 DIIS: error= 6.25D-06 at cycle   8 NSaved=   8.
 NSaved= 8 IEnMin= 8 EnMin= -192.407902436170     IErMin= 8 ErrMin= 6.25D-06
 ErrMax= 6.25D-06 EMaxC= 1.00D-01 BMatC= 6.15D-08 BMatP= 2.78D-07
 IDIUse=1 WtCom= 1.00D+00 WtEn= 0.00D+00
 Coeff-Com: -0.191D-02 0.359D-01-0.398D-02-0.242D-01-0.108D+00-0.164D+00
 Coeff-Com:  0.179D+00 0.109D+01
 Coeff:     -0.191D-02 0.359D-01-0.398D-02-0.242D-01-0.108D+00-0.164D+00
 Coeff:      0.179D+00 0.109D+01
 Gap=     0.159 Goal=   None    Shift=    0.000
 Gap=     0.152 Goal=   None    Shift=    0.000
 RMSDP=5.87D-06 MaxDP=1.67D-04 DE=-2.65D-07 OVMax= 5.33D-04

 Cycle   9  Pass 1  IDiag  1:
 E= -192.407902554201     Delta-E=       -0.000000118031 Rises=F Damp=F
 DIIS: error= 3.41D-06 at cycle   9 NSaved=   9.
 NSaved= 9 IEnMin= 9 EnMin= -192.407902554201     IErMin= 9 ErrMin= 3.41D-06
 ErrMax= 3.41D-06 EMaxC= 1.00D-01 BMatC= 1.30D-08 BMatP= 6.15D-08
 IDIUse=1 WtCom= 1.00D+00 WtEn= 0.00D+00
 Coeff-Com: -0.804D-03 0.873D-02 0.777D-02 0.182D-02-0.340D-01-0.944D-01
 Coeff-Com: -0.114D+00 0.271D+00 0.954D+00
 Coeff:     -0.804D-03 0.873D-02 0.777D-02 0.182D-02-0.340D-01-0.944D-01
 Coeff:     -0.114D+00 0.271D+00 0.954D+00
 Gap=     0.159 Goal=   None    Shift=    0.000
 Gap=     0.152 Goal=   None    Shift=    0.000
 RMSDP=2.94D-06 MaxDP=1.02D-04 DE=-1.18D-07 OVMax= 2.57D-04

 Cycle  10  Pass 1  IDiag  1:
 E= -192.407902578659     Delta-E=       -0.000000024458 Rises=F Damp=F
 DIIS: error= 2.38D-06 at cycle  10 NSaved=  10.
 NSaved=10 IEnMin=10 EnMin= -192.407902578659     IErMin=10 ErrMin= 2.38D-06
 ErrMax= 2.38D-06 EMaxC= 1.00D-01 BMatC= 6.87D-09 BMatP= 1.30D-08
 IDIUse=1 WtCom= 1.00D+00 WtEn= 0.00D+00
 Coeff-Com:  0.108D-03-0.557D-02 0.643D-02 0.871D-02 0.117D-01-0.782D-02
 Coeff-Com: -0.116D+00-0.153D+00 0.545D+00 0.710D+00
 Coeff:      0.108D-03-0.557D-02 0.643D-02 0.871D-02 0.117D-01-0.782D-02
 Coeff:     -0.116D+00-0.153D+00 0.545D+00 0.710D+00
 Gap=     0.159 Goal=   None    Shift=    0.000
 Gap=     0.152 Goal=   None    Shift=    0.000
 RMSDP=1.33D-06 MaxDP=4.11D-05 DE=-2.45D-08 OVMax= 1.13D-04

 Cycle  11  Pass 1  IDiag  1:
 E= -192.407902583941     Delta-E=       -0.000000005282 Rises=F Damp=F
 DIIS: error= 1.03D-06 at cycle  11 NSaved=  11.
 NSaved=11 IEnMin=11 EnMin= -192.407902583941     IErMin=11 ErrMin= 1.03D-06
 ErrMax= 1.03D-06 EMaxC= 1.00D-01 BMatC= 1.35D-09 BMatP= 6.87D-09
 IDIUse=1 WtCom= 1.00D+00 WtEn= 0.00D+00
 Coeff-Com:  0.285D-03-0.550D-02 0.630D-03 0.367D-02 0.162D-01 0.245D-01
 Coeff-Com: -0.281D-01-0.169D+00 0.170D-01 0.389D+00 0.752D+00
 Coeff:      0.285D-03-0.550D-02 0.630D-03 0.367D-02 0.162D-01 0.245D-01
 Coeff:     -0.281D-01-0.169D+00 0.170D-01 0.389D+00 0.752D+00
 Gap=     0.159 Goal=   None    Shift=    0.000
 Gap=     0.152 Goal=   None    Shift=    0.000
 RMSDP=6.14D-07 MaxDP=2.39D-05 DE=-5.28D-09 OVMax= 4.71D-05

 Cycle  12  Pass 1  IDiag  1:
 E= -192.407902584906     Delta-E=       -0.000000000965 Rises=F Damp=F
 DIIS: error= 1.91D-07 at cycle  12 NSaved=  12.
 NSaved=12 IEnMin=12 EnMin= -192.407902584906     IErMin=12 ErrMin= 1.91D-07
 ErrMax= 1.91D-07 EMaxC= 1.00D-01 BMatC= 4.53D-11 BMatP= 1.35D-09
 IDIUse=1 WtCom= 1.00D+00 WtEn= 0.00D+00
 Coeff-Com:  0.272D-04-0.282D-04-0.745D-03-0.520D-03 0.673D-03 0.432D-02
 Coeff-Com:  0.100D-01-0.553D-02-0.556D-01-0.307D-01 0.976D-01 0.981D+00
 Coeff:      0.272D-04-0.282D-04-0.745D-03-0.520D-03 0.673D-03 0.432D-02
 Coeff:      0.100D-01-0.553D-02-0.556D-01-0.307D-01 0.976D-01 0.981D+00
 Gap=     0.159 Goal=   None    Shift=    0.000
 Gap=     0.152 Goal=   None    Shift=    0.000
 RMSDP=1.19D-07 MaxDP=3.05D-06 DE=-9.65D-10 OVMax= 7.61D-06

 Cycle  13  Pass 1  IDiag  1:
 E= -192.407902584938     Delta-E=       -0.000000000032 Rises=F Damp=F
 DIIS: error= 5.25D-08 at cycle  13 NSaved=  13.
 NSaved=13 IEnMin=13 EnMin= -192.407902584938     IErMin=13 ErrMin= 5.25D-08
 ErrMax= 5.25D-08 EMaxC= 1.00D-01 BMatC= 3.48D-12 BMatP= 4.53D-11
 IDIUse=1 WtCom= 1.00D+00 WtEn= 0.00D+00
 Coeff-Com: -0.212D-04 0.484D-03-0.161D-03-0.384D-03-0.138D-02-0.129D-02
 Coeff-Com:  0.406D-02 0.135D-01-0.992D-02-0.390D-01-0.486D-01 0.151D+00
 Coeff-Com:  0.932D+00
 Coeff:     -0.212D-04 0.484D-03-0.161D-03-0.384D-03-0.138D-02-0.129D-02
 Coeff:      0.406D-02 0.135D-01-0.992D-02-0.390D-01-0.486D-01 0.151D+00
 Coeff:      0.932D+00
 Gap=     0.159 Goal=   None    Shift=    0.000
 Gap=     0.152 Goal=   None    Shift=    0.000
 RMSDP=2.60D-08 MaxDP=5.23D-07 DE=-3.19D-11 OVMax= 1.22D-06

 Cycle  14  Pass 1  IDiag  1:
 E= -192.407902584942     Delta-E=       -0.000000000004 Rises=F Damp=F
 DIIS: error= 1.69D-08 at cycle  14 NSaved=  14.
 NSaved=14 IEnMin=14 EnMin= -192.407902584942     IErMin=14 ErrMin= 1.69D-08
 ErrMax= 1.69D-08 EMaxC= 1.00D-01 BMatC= 2.32D-13 BMatP= 3.48D-12
 IDIUse=1 WtCom= 1.00D+00 WtEn= 0.00D+00
 Coeff-Com: -0.402D-05 0.528D-04 0.271D-04-0.156D-04-0.199D-03-0.426D-03
 Coeff-Com: -0.136D-03 0.188D-02 0.252D-02-0.242D-02-0.118D-01-0.427D-01
 Coeff-Com:  0.105D+00 0.948D+00
 Coeff:     -0.402D-05 0.528D-04 0.271D-04-0.156D-04-0.199D-03-0.426D-03
 Coeff:     -0.136D-03 0.188D-02 0.252D-02-0.242D-02-0.118D-01-0.427D-01
 Coeff:      0.105D+00 0.948D+00
 Gap=     0.159 Goal=   None    Shift=    0.000
 Gap=     0.152 Goal=   None    Shift=    0.000
 RMSDP=6.51D-09 MaxDP=1.80D-07 DE=-4.09D-12 OVMax= 2.71D-07

 SCF Done:  E(UB3LYP) =  -192.407902585     A.U. after   14 cycles
             Convg  =    0.6514D-08             -V/T =  2.0067
 <Sx>= 0.0000 <Sy>= 0.0000 <Sz>= 0.5000 <S**2>= 0.7599 S= 0.5050
 <L.S>= 0.000000000000E+00
 KE= 1.911280972872D+02 PE=-6.676168084014D+02 EE= 1.745457477748D+02
 Annihilation of the first spin contaminant:
 S**2 before annihilation     0.7599,   after     0.7501
 Leave Link  502 at Thu Oct 29 19:44:50 2009, MaxMem= 1258291200 cpu:     274.0
 (Enter /home/g09/l508.exe)
 QCSCF skips out because SCF is already converged.
 Leave Link  508 at Thu Oct 29 19:44:50 2009, MaxMem= 1258291200 cpu:       0.0
 (Enter /home/g09/l801.exe)
 Range of M.O.s used for correlation:     1   137
 NBasis=   137 NAE=    16 NBE=    15 NFC=     0 NFV=     0
 NROrb=    137 NOA=    16 NOB=    15 NVA=   121 NVB=   122

 **** Warning!!: The largest alpha MO coefficient is  0.30380214D+02


 **** Warning!!: The largest beta MO coefficient is  0.30442415D+02

 Leave Link  801 at Thu Oct 29 19:44:51 2009, MaxMem= 1258291200 cpu:       0.4
 (Enter /home/g09/l1101.exe)
 Leave Link 1101 at Thu Oct 29 19:44:51 2009, MaxMem= 1258291200 cpu:       0.3
 (Enter /home/g09/l1102.exe)
 Symmetrizing basis deriv contribution to polar:
 IMax=3 JMax=2 DiffMx= 0.00D+00
 Leave Link 1102 at Thu Oct 29 19:44:51 2009, MaxMem= 1258291200 cpu:       0.7
 (Enter /home/g09/l1110.exe)
 Leave Link 1110 at Thu Oct 29 19:44:51 2009, MaxMem= 1258291200 cpu:       0.4
 (Enter /home/g09/l1002.exe)
 Minotr:  UHF open shell wavefunction.
 Leave Link 1002 at Thu Oct 29 19:44:51 2009, MaxMem= 1258291200 cpu:       0.4
 (Enter /home/g09/l601.exe)
 Copying SCF densities to generalized density rwf, IOpCl= 1 IROHF=0.

 **********************************************************************

            Population analysis using the SCF density.

 **********************************************************************

 Alpha  occ. eigenvalues --  -19.19007 -10.25323 -10.22570 -10.20247  -1.06872
 Alpha  occ. eigenvalues --   -0.82227  -0.70868  -0.59703  -0.53029  -0.48376
 Alpha  occ. eigenvalues --   -0.44930  -0.40299  -0.39076  -0.36393  -0.24746
 Alpha  occ. eigenvalues --   -0.18084
 Alpha virt. eigenvalues --   -0.02220  -0.00192   0.00548   0.01236   0.02346
 Alpha virt. eigenvalues --    0.02901   0.05932   0.06874   0.07192   0.07748
 Alpha virt. eigenvalues --    0.08740   0.10012   0.10584   0.11185   0.11443
 Alpha virt. eigenvalues --    0.12247   0.12722   0.13519   0.17042   0.17422
 Alpha virt. eigenvalues --    0.18779   0.19725   0.20439   0.21317   0.23785
 Alpha virt. eigenvalues --    0.25378   0.26766   0.28392   0.28994   0.31345
 Alpha virt. eigenvalues --    0.32461   0.33957   0.34946   0.35703   0.36610
 Alpha virt. eigenvalues --    0.38100   0.40186   0.40717   0.42480   0.43084
 Alpha virt. eigenvalues --    0.44287   0.45759   0.47225   0.48033   0.50089
 Alpha virt. eigenvalues --    0.51686   0.51990   0.53944   0.55825   0.56610
 Alpha virt. eigenvalues --    0.57963   0.59213   0.60364   0.61170   0.61587
 Alpha virt. eigenvalues --    0.62637   0.66199   0.67469   0.70624   0.75955
 Alpha virt. eigenvalues --    0.77639   0.83804   0.85462   0.87151   0.89009
 Alpha virt. eigenvalues --    0.95576   0.97243   1.00547   1.02074   1.03484
 Alpha virt. eigenvalues --    1.08067   1.11916   1.14745   1.23097   1.27701
 Alpha virt. eigenvalues --    1.30390   1.32958   1.34429   1.38038   1.41121
 Alpha virt. eigenvalues --    1.42253   1.44047   1.44313   1.49951   1.53490
 Alpha virt. eigenvalues --    1.55419   1.58684   1.61221   1.65037   1.69969
 Alpha virt. eigenvalues --    1.74261   1.77749   1.80194   1.83711   1.85202
 Alpha virt. eigenvalues --    1.87753   1.94046   1.98322   1.99227   2.04198
 Alpha virt. eigenvalues --    2.07715   2.11699   2.13151   2.19423   2.28411
 Alpha virt. eigenvalues --    2.30762   2.33664   2.48819   2.51084   2.53647
 Alpha virt. eigenvalues --    2.62037   2.62344   2.66777   2.81653   2.97808
 Alpha virt. eigenvalues --    3.11898   3.33470   3.35859   3.40918   3.54280
 Alpha virt. eigenvalues --    3.90704
  Beta  occ. eigenvalues --  -19.18779 -10.24982 -10.21831 -10.19758  -1.06325
  Beta  occ. eigenvalues --   -0.80571  -0.69492  -0.58872  -0.51739  -0.47639
  Beta  occ. eigenvalues --   -0.44250  -0.39605  -0.38124  -0.34646  -0.23318
  Beta virt. eigenvalues --   -0.08111  -0.02071   0.00488   0.01228   0.01371
  Beta virt. eigenvalues --    0.02749   0.02960   0.06022   0.07106   0.07325
  Beta virt. eigenvalues --    0.08116   0.08882   0.10216   0.10854   0.11283
  Beta virt. eigenvalues --    0.11528   0.12511   0.12914   0.13797   0.17305
  Beta virt. eigenvalues --    0.17819   0.18936   0.19861   0.20821   0.21783
  Beta virt. eigenvalues --    0.24116   0.25495   0.27048   0.28744   0.29191
  Beta virt. eigenvalues --    0.31561   0.32643   0.34432   0.35332   0.35925
  Beta virt. eigenvalues --    0.37150   0.38228   0.40293   0.41452   0.42805
  Beta virt. eigenvalues --    0.43340   0.44820   0.46312   0.47694   0.48457
  Beta virt. eigenvalues --    0.50462   0.51839   0.52293   0.54383   0.56176
  Beta virt. eigenvalues --    0.57014   0.58317   0.59556   0.60926   0.61446
  Beta virt. eigenvalues --    0.61993   0.62969   0.66767   0.68010   0.70946
  Beta virt. eigenvalues --    0.76656   0.78037   0.84118   0.86095   0.87443
  Beta virt. eigenvalues --    0.89463   0.96040   0.97677   1.01669   1.02590
  Beta virt. eigenvalues --    1.03863   1.08238   1.12332   1.15715   1.23416
  Beta virt. eigenvalues --    1.28033   1.30761   1.33958   1.34732   1.38887
  Beta virt. eigenvalues --    1.41907   1.42871   1.44688   1.45401   1.50684
  Beta virt. eigenvalues --    1.53903   1.56592   1.59585   1.61959   1.65761
  Beta virt. eigenvalues --    1.70761   1.74812   1.78468   1.80874   1.84135
  Beta virt. eigenvalues --    1.85492   1.88461   1.94862   1.98742   1.99725
  Beta virt. eigenvalues --    2.04874   2.08295   2.12543   2.13471   2.20460
  Beta virt. eigenvalues --    2.28996   2.31197   2.34176   2.49345   2.51953
  Beta virt. eigenvalues --    2.53958   2.62358   2.62718   2.67182   2.82052
  Beta virt. eigenvalues --    2.98449   3.12279   3.33952   3.36398   3.41305
  Beta virt. eigenvalues --    3.54745   3.90921
          Condensed to atoms (all electrons):
              1          2          3          4          5          6
     1  C    5.555168  -0.179559  -0.483346  -0.032447   0.043928   0.237188
     2  C   -0.179559   6.730626  -0.368469  -0.049964  -0.191073  -0.128274
     3  C   -0.483346  -0.368469   6.097552   0.026722   0.028322  -0.146365
     4  O   -0.032447  -0.049964   0.026722   8.400828  -0.224680   0.010131
     5  H    0.043928  -0.191073   0.028322  -0.224680   1.770479   0.006986
     6  H    0.237188  -0.128274  -0.146365   0.010131   0.006986   2.034215
     7  H    0.336994   0.134261  -0.194021   0.012467  -0.019783  -0.055065
     8  H   -0.054078  -0.055328   0.133620   0.001975   0.002363  -0.458925
     9  H    0.030538   0.008041  -0.148144   0.275469   0.055684   0.000624
              7          8          9
     1  C    0.336994  -0.054078   0.030538
     2  C    0.134261  -0.055328   0.008041
     3  C   -0.194021   0.133620  -0.148144
     4  O    0.012467   0.001975   0.275469
     5  H   -0.019783   0.002363   0.055684
     6  H   -0.055065  -0.458925   0.000624
     7  H    0.806547   0.025240   0.001700
     8  H    0.025240   1.743851   0.006368
     9  H    0.001700   0.006368   0.682540
 Mulliken atomic charges:
              1
     1  C    0.545616
     2  C    0.099738
     3  C    1.054130
     4  O   -0.420500
     5  H   -0.472225
     6  H   -0.500514
     7  H   -0.048340
     8  H   -0.345086
     9  H    0.087180
 Sum of Mulliken atomic charges =   0.00000
 Mulliken charges with hydrogens summed into heavy atoms:
              1
     1  C   -0.299984
     2  C    0.051399
     3  C    0.581905
     4  O   -0.333320
 Sum of Mulliken charges with hydrogens summed into heavy atoms =   0.00000
          Atomic-Atomic Spin Densities.
              1          2          3          4          5          6
     1  C    0.774182  -0.283188  -0.003236  -0.000330  -0.001548  -0.010709
     2  C   -0.283188   0.572724  -0.005927   0.002441  -0.011915   0.030161
     3  C   -0.003236  -0.005927   0.220051  -0.051970   0.037932   0.002232
     4  O   -0.000330   0.002441  -0.051970   0.115181  -0.003114   0.000516
     5  H   -0.001548  -0.011915   0.037932  -0.003114  -0.033471  -0.000058
     6  H   -0.010709   0.030161   0.002232   0.000516  -0.000058  -0.047558
     7  H    0.020131   0.034559   0.005490  -0.000653   0.003015   0.000981
     8  H    0.051891  -0.007159  -0.005162  -0.000132  -0.000443   0.014916
     9  H    0.001057  -0.001497  -0.001722  -0.000265   0.000117   0.000410
              7          8          9
     1  C    0.020131   0.051891   0.001057
     2  C    0.034559  -0.007159  -0.001497
     3  C    0.005490  -0.005162  -0.001722
     4  O   -0.000653  -0.000132  -0.000265
     5  H    0.003015  -0.000443   0.000117
     6  H    0.000981   0.014916   0.000410
     7  H   -0.148586  -0.000922   0.000322
     8  H   -0.000922  -0.082604  -0.000242
     9  H    0.000322  -0.000242  -0.001877
 Mulliken atomic spin densities:
              1
     1  C    0.548250
     2  C    0.330199
     3  C    0.197688
     4  O    0.061674
     5  H   -0.009484
     6  H   -0.009109
     7  H   -0.085663
     8  H   -0.029858
     9  H   -0.003697
 Sum of Mulliken atomic spin densities =   1.00000
 Electronic spatial extent (au):  <R**2>=            309.4451
 Charge=              0.0000 electrons
 Dipole moment (field-independent basis, Debye):
    X=              0.1012    Y=             -0.3321    Z=             -1.6951  Tot=              1.7303
 Quadrupole moment (field-independent basis, Debye-Ang):
   XX=            -26.2552   YY=            -26.0765   ZZ=            -24.2226
   XY=              1.6193   XZ=             -1.3914   YZ=             -1.1831
 Traceless Quadrupole moment (field-independent basis, Debye-Ang):
   XX=             -0.7371   YY=             -0.5584   ZZ=              1.2955
   XY=              1.6193   XZ=             -1.3914   YZ=             -1.1831
 Octapole moment (field-independent basis, Debye-Ang**2):
  XXX=             12.3201  YYY=              1.2007  ZZZ=              9.0946  XYY=              4.0425
  XXY=              1.3503  XXZ=             -4.9053  XZZ=             -0.6812  YZZ=             -0.8965
  YYZ=              2.3388  XYZ=              1.0384
 Hexadecapole moment (field-independent basis, Debye-Ang**3):
 XXXX=           -165.7133 YYYY=            -40.6603 ZZZZ=           -216.3022 XXXY=              1.7118
 XXXZ=            -51.3574 YYYX=             -3.2594 YYYZ=              3.1687 ZZZX=            -52.2712
 ZZZY=             -2.7681 XXYY=            -33.0520 XXZZ=            -67.0616 YYZZ=            -43.8510
 XXYZ=             -1.3838 YYXZ=            -16.1662 ZZXY=             -5.4090
 N-N= 1.095350607544D+02 E-N=-9.955690318547D+02  KE= 2.858849662976D+02
  Exact polarizability:   0.000   0.000   0.000   0.000   0.000   0.000
 Approx polarizability:  78.300  -0.589  51.382  17.162  -6.270  98.029
                          Isotropic Fermi Contact Couplings
        Atom                 a.u.       MegaHertz       Gauss      10(-4) cm-1
     1  C(13)              0.10471     117.71072      42.00211      39.26407
     2  C(13)              0.11514     129.43562      46.18585      43.17508
     3  C(13)              0.05931      66.67125      23.78996      22.23913
     4  O(17)              0.03145     -19.06359      -6.80236      -6.35893
     5  H(1)              -0.00062      -2.75492      -0.98302      -0.91894
     6  H(1)              -0.00074      -3.28776      -1.17316      -1.09668
     7  H(1)              -0.02514    -112.35700     -40.09177     -37.47826
     8  H(1)              -0.00826     -36.93713     -13.18009     -12.32090
     9  H(1)              -0.00117      -5.20849      -1.85852      -1.73737
 --------------------------------------------------------
       Center         ----  Spin Dipole Couplings  ----
                      3XX-RR        3YY-RR        3ZZ-RR
 --------------------------------------------------------
     1   Atom        0.049979      0.203810     -0.253789
     2   Atom        0.325791     -0.164722     -0.161069
     3   Atom       -0.106995      0.211752     -0.104757
     4   Atom        0.102242      0.055489     -0.157731
     5   Atom       -0.017612      0.003081      0.014531
     6   Atom        0.012063      0.004515     -0.016578
     7   Atom       -0.030535     -0.041795      0.072331
     8   Atom       -0.001233      0.014680     -0.013448
     9   Atom        0.003119     -0.010565      0.007446
 --------------------------------------------------------
                        XY            XZ            YZ
 --------------------------------------------------------
     1   Atom        0.396021     -0.058790     -0.077312
     2   Atom        0.251465     -0.073493     -0.066530
     3   Atom       -0.101251     -0.002829      0.041327
     4   Atom       -0.245015     -0.049674      0.048024
     5   Atom        0.003446     -0.000887     -0.015579
     6   Atom       -0.010343     -0.027410      0.014541
     7   Atom        0.030807     -0.022834      0.010005
     8   Atom       -0.010050      0.020251     -0.027745
     9   Atom        0.002448     -0.006438     -0.007478
 --------------------------------------------------------


 ---------------------------------------------------------------------------------
              Anisotropic Spin Dipole Couplings in Principal Axis System
 ---------------------------------------------------------------------------------

       Atom             a.u.   MegaHertz   Gauss  10(-4) cm-1        Axes

              Baa    -0.2777   -37.267   -13.298   -12.431  0.7135 -0.6345 -0.2971
     1 C(13)  Bbb    -0.2644   -35.484   -12.662   -11.836  0.3044 -0.1011  0.9472
              Bcc     0.5421    72.751    25.959    24.267  0.6310  0.7663 -0.1210
 
              Baa    -0.2807   -37.670   -13.442   -12.565 -0.3360  0.8956  0.2916
     2 C(13)  Bbb    -0.1655   -22.212    -7.926    -7.409  0.2505 -0.2135  0.9443
              Bcc     0.4462    59.882    21.367    19.975  0.9079  0.3903 -0.1526
 
              Baa    -0.1390   -18.657    -6.657    -6.223  0.9123  0.2966 -0.2823
     3 C(13)  Bbb    -0.1068   -14.336    -5.115    -4.782  0.3035 -0.0271  0.9524
              Bcc     0.2459    32.993    11.773    11.005 -0.2748  0.9546  0.1147
 
              Baa    -0.1694    12.260     4.375     4.090 -0.3931 -0.5805  0.7131
     4 O(17)  Bbb    -0.1652    11.957     4.266     3.988  0.5560  0.4677  0.6871
              Bcc     0.3347   -24.217    -8.641    -8.078  0.7324 -0.6666 -0.1389
 
              Baa    -0.0183    -9.759    -3.482    -3.255  0.9747 -0.2109 -0.0738
     5 H(1)   Bbb    -0.0073    -3.886    -1.386    -1.296  0.2145  0.7907  0.5734
              Bcc     0.0256    13.645     4.869     4.551 -0.0626 -0.5747  0.8159
 
              Baa    -0.0346   -18.471    -6.591    -6.161  0.4632 -0.1985  0.8637
     6 H(1)   Bbb    -0.0025    -1.318    -0.470    -0.440  0.4937  0.8672 -0.0654
              Bcc     0.0371    19.789     7.061     6.601  0.7360 -0.4567 -0.4997
 
              Baa    -0.0710   -37.882   -13.517   -12.636 -0.6525  0.7416 -0.1557
     7 H(1)   Bbb    -0.0063    -3.349    -1.195    -1.117  0.7313  0.6701  0.1271
              Bcc     0.0773    41.231    14.712    13.753 -0.1986  0.0309  0.9796
 
              Baa    -0.0355   -18.935    -6.756    -6.316 -0.3823  0.3874  0.8389
     8 H(1)   Bbb    -0.0054    -2.877    -1.027    -0.960  0.8179  0.5644  0.1121
              Bcc     0.0409    21.812     7.783     7.276 -0.4301  0.7290 -0.5326
 
              Baa    -0.0133    -7.078    -2.526    -2.361 -0.0081  0.9413  0.3374
     9 H(1)   Bbb    -0.0011    -0.586    -0.209    -0.195  0.8527 -0.1697  0.4940
              Bcc     0.0144     7.664     2.735     2.556 -0.5223 -0.2917  0.8014
 

 ---------------------------------------------------------------------------------

 No NMR shielding tensors so no spin-rotation constants.
 Leave Link  601 at Thu Oct 29 19:44:52 2009, MaxMem= 1258291200 cpu:       2.8
 (Enter /home/g09/l701.exe)
 Compute integral first derivatives.
 ... and contract with generalized density number  0.
 Leave Link  701 at Thu Oct 29 19:44:52 2009, MaxMem= 1258291200 cpu:       1.9
 (Enter /home/g09/l702.exe)
 L702 exits ... SP integral derivatives will be done elsewhere.
 Leave Link  702 at Thu Oct 29 19:44:52 2009, MaxMem= 1258291200 cpu:       0.3
 (Enter /home/g09/l703.exe)
 Compute integral first derivatives, UseDBF=F ICtDFT=           0.
 Integral derivatives from FoFDir, PRISM(SPDF).
 Calling FoFJK, ICntrl=      2127 FMM=F ISym2X=0 I1Cent= 0 IOpClX= 1 NMat=1 NMatS=1 NMatT=0.
 FoFCou: FMM=F IPFlag=           0 FMFlag=      100000 FMFlg1=         800
         NFxFlg=           0 DoJE=F BraDBF=F KetDBF=F FulRan=T
         Omega=  0.000000  0.000000  1.000000  0.000000  0.000000 ICntrl=    2127 IOpCl=  1
         NMat0=    1 NMatS0=    1 NMatT0=    0 NMatD0=    1 NMtDS0=    0 NMtDT0=    0
         I1Cent=           0 NGrid=           0.
 Symmetry not used in FoFCou.
 Leave Link  703 at Thu Oct 29 19:44:58 2009, MaxMem= 1258291200 cpu:      44.2
 (Enter /home/g09/l716.exe)
 Dipole        = 3.98027440D-02-1.30671972D-01-6.66918095D-01
 Polarizability= 0.00000000D+00 0.00000000D+00 0.00000000D+00
                 0.00000000D+00 0.00000000D+00 0.00000000D+00
 -------------------------------------------------------------------
 Center     Atomic                   Forces (Hartrees/Bohr)
 Number     Number              X              Y              Z
 -------------------------------------------------------------------
      1        6           0.009312060    0.006155588   -0.004485051
      2        6          -0.004641448   -0.007179437   -0.006628040
      3        6           0.000523497   -0.000439103   -0.000585139
      4        8          -0.001633328    0.000519550   -0.000091878
      5        1           0.000002571   -0.000145174   -0.000110292
      6        1           0.000533008    0.000530276   -0.000426195
      7        1          -0.003105657    0.001815956    0.012594594
      8        1          -0.000952518   -0.001231092   -0.000205738
      9        1          -0.000038185   -0.000026564   -0.000062261
 -------------------------------------------------------------------
 Cartesian Forces:  Max     0.012594594 RMS     0.004038303
 Leave Link  716 at Thu Oct 29 19:44:58 2009, MaxMem= 1258291200 cpu:       0.4
 (Enter /home/g09/l123.exe)
 IRC-IRC-IRC-IRC-IRC-IRC-IRC-IRC-IRC-IRC-IRC-IRC-IRC-IRC-IRC-IRC-IRC-IRC
 Pt  1 Step number   1 out of a maximum of  25
 Using modified Bulirsch-Stoer corrector interation.
   Using distance weighted interpolants to fit PES.
    Cycle     1 NS=     2
    Cycle     2 NS=     4 Truncation Error =  0.011914007
    Cycle     3 NS=     6 Truncation Error =  0.000007317
    Cycle     4 NS=     8 Truncation Error =  0.000001492
    Cycle     5 NS=    12 Truncation Error =  0.000000142
 BS completed in    5 cycles and      32 integration steps.
 SUMMARY OF CORRECTOR INTEGRATION:
   Original End Point Energy  =  -192.407903
   Corrected End Point Energy =  -192.407903
   Old End-Start Dist.        =     0.106167
   New End-Start Dist.        =     0.106161
   New End-Old End Dist.      =     0.001065
 CORRECTOR INTEGRATION CONVERGENCE:
   Recorrection delta-x convergence threshold:    0.010000
   Delta-x Convergence Met
 Point Number:   1          Path Number:   1
                    CURRENT STRUCTURE
                Cartesian Coordinates (Ang):                
 ---------------------------------------------------------------------
 Center     Atomic                     Coordinates (Angstroms)
 Number     Number                        X           Y           Z
 ---------------------------------------------------------------------
      1          6                   -0.747622    0.035988   -1.596048
      2          6                   -0.858599    0.040297   -0.163191
      3          6                   -0.017145   -0.189759    0.863045
      4          8                    1.326495    0.120837    0.882030
      5          1                   -0.333913   -0.586460    1.826010
      6          1                    0.070296   -0.461791   -2.133467
      7          1                   -1.636176   -0.684485   -0.863355
      8          1                   -1.404994    0.682318   -2.179004
      9          1                    1.581485    0.483768    0.022189
 ---------------------------------------------------------------------
   CHANGE IN THE REACTION COORDINATE =    0.10616
   NET REACTION COORDINATE UP TO THIS POINT =    0.10616
  # OF POINTS ALONG THE PATH =   1
  # OF STEPS =   1

 Calculating another point on the path.
 Point Number  2 in REVERSE path direction.
 Using LQA Reaction Path Following.
   LQA: T_Est iteration completed in    3 iterations.
 IRC-IRC-IRC-IRC-IRC-IRC-IRC-IRC-IRC-IRC-IRC-IRC-IRC-IRC-IRC-IRC-IRC-IRC
 Leave Link  123 at Thu Oct 29 19:44:58 2009, MaxMem= 1258291200 cpu:       0.1
 (Enter /home/g09/l202.exe)
                          Input orientation:                          
 ---------------------------------------------------------------------
 Center     Atomic      Atomic             Coordinates (Angstroms)
 Number     Number       Type             X           Y           Z
 ---------------------------------------------------------------------
      1          6           0       -0.744528    0.038035   -1.597515
      2          6           0       -0.860192    0.037877   -0.165458
      3          6           0       -0.016961   -0.189913    0.862869
      4          8           0        1.326089    0.120969    0.882006
      5          1           0       -0.333888   -0.587023    1.825555
      6          1           0        0.072501   -0.459781   -2.135249
      7          1           0       -1.648000   -0.676794   -0.813114
      8          1           0       -1.408865    0.677468   -2.179845
      9          1           0        1.581334    0.483655    0.021969
 ---------------------------------------------------------------------
                    Distance matrix (angstroms):
                    1          2          3          4          5
     1  C    0.000000
     2  C    1.436720   0.000000
     3  C    2.575811   1.349216   0.000000
     4  O    3.231463   2.425676   1.378694   0.000000
     5  H    3.503816   2.152121   1.088532   2.036433   0.000000
     6  H    1.097504   2.235544   3.011569   3.318521   3.983630
     7  H    1.393746   1.245333   2.388778   3.514976   2.949155
     8  H    1.090563   2.183547   3.456568   4.143018   4.335636
     9  H    2.868961   2.488955   1.927526   0.967654   2.840308
                    6          7          8          9
     6  H    0.000000
     7  H    2.180656   0.000000
     8  H    1.868092   1.938857   0.000000
     9  H    2.796469   3.531657   3.718446   0.000000
 Symmetry turned off by external request.
 Stoichiometry    C3H5O(2)
 Framework group  C1[X(C3H5O)]
 Deg. of freedom    21
 Full point group                 C1      NOp   1
 Rotational constants (GHZ):     23.0918132      5.1048548      4.3006382
 Leave Link  202 at Thu Oct 29 19:44:58 2009, MaxMem= 1258291200 cpu:       0.0
 (Enter /home/g09/l301.exe)
 Standard basis: Aug-CC-pVDZ (5D, 7F)
 Ernie: Thresh=  0.10000D-02 Tol=  0.10000D-05 Strict=F.
 Ernie:  8 primitive shells out of 135 were deleted.
 Integral buffers will be    131072 words long.
 Raffenetti 2 integral format.
 Two-electron integral symmetry is turned off.
   137 basis functions,   227 primitive gaussians,   145 cartesian basis functions
    16 alpha electrons       15 beta electrons
       nuclear repulsion energy       109.5234439824 Hartrees.
 IExCor=  402 DFT=T Ex+Corr=B3LYP ExCW=0 ScaHFX=  0.200000
 ScaDFX=  0.800000  0.720000  1.000000  0.810000 ScalE2=  1.000000  1.000000
 IRadAn=      5 IRanWt=     -1 IRanGd=            0 ICorTp=0
 NAtoms=    9 NActive=    9 NUniq=    9 SFac= 7.50D-01 NAtFMM=   80 NAOKFM=F Big=F
 Leave Link  301 at Thu Oct 29 19:44:58 2009, MaxMem= 1258291200 cpu:       0.6
 (Enter /home/g09/l302.exe)
 NPDir=0 NMtPBC=     1 NCelOv=     1 NCel=       1 NClECP=     1 NCelD=      1
         NCelK=      1 NCelE2=     1 NClLst=     1 CellRange=     0.0.
 One-electron integrals computed using PRISM.
 NBasis=   137 RedAO= T  NBF=   137
 NBsUse=   137 1.00D-06 NBFU=   137
 Precomputing XC quadrature grid using
 IXCGrd= 2 IRadAn=           5 IRanWt=          -1 IRanGd=           0 AccXCQ= 1.00D-10.
 NRdTot=     769 NPtTot=      206766 NUsed=      212279 NTot=      212311
 NSgBfM=   145   145   145   145   145 NAtAll=     9     9.
 Leave Link  302 at Thu Oct 29 19:44:58 2009, MaxMem= 1258291200 cpu:       2.2
 (Enter /home/g09/l303.exe)
 DipDrv:  MaxL=1.
 Leave Link  303 at Thu Oct 29 19:44:58 2009, MaxMem= 1258291200 cpu:       0.4
 (Enter /home/g09/l401.exe)
 Initial guess read from the read-write file.
 B after Tr=     0.000000    0.000000    0.000000
         Rot=    1.000000    0.000000    0.000000    0.000000 Ang=   0.00 deg.
 Guess basis will be translated and rotated to current coordinates.
 Initial guess <Sx>= 0.0000 <Sy>= 0.0000 <Sz>= 0.5000 <S**2>= 0.7600 S= 0.5050
 Generating alternative initial guess.
 Harris functional with IExCor=  402 diagonalized for initial guess.
 ExpMin= 2.97D-02 ExpMax= 1.17D+04 ExpMxC= 4.01D+02 IAcc=3 IRadAn=         5 AccDes= 0.00D+00
 HarFok:  IExCor=  402 AccDes= 0.00D+00 IRadAn=         5 IDoV= 1
 ScaDFX=  1.000000  1.000000  1.000000  1.000000
 FoFCou: FMM=F IPFlag=           0 FMFlag=      100000 FMFlg1=           0
         NFxFlg=           0 DoJE=T BraDBF=F KetDBF=T FulRan=T
         Omega=  0.000000  0.000000  1.000000  0.000000  0.000000 ICntrl=     500 IOpCl=  0
         NMat0=    1 NMatS0=    1 NMatT0=    0 NMatD0=    1 NMtDS0=    0 NMtDT0=    0
         I1Cent=           4 NGrid=           0.
 Symmetry not used in FoFCou.
 Harris En= -192.432423443365    
 Leave Link  401 at Thu Oct 29 19:44:59 2009, MaxMem= 1258291200 cpu:       9.4
 (Enter /home/g09/l502.exe)
 UHF open shell SCF:
 Requested convergence on RMS density matrix=1.00D-08 within  64 cycles.
 Requested convergence on MAX density matrix=1.00D-06.
 Requested convergence on             energy=1.00D-06.
 No special actions if energy rises.
 Using DIIS extrapolation, IDIIS=  1040.
 Two-electron integral symmetry not used.
       212185 words used for storage of precomputed grid.
 Keep R1 and R2 ints in memory in canonical form, NReq=113891672.
 IEnd=      282846 IEndB=      282846 NGot=  1258291200 MDV=  1145980911
 LenX=  1145980911 LenY=  1145959445
 Symmetry not used in FoFDir.
 MinBra= 0 MaxBra= 2 Meth= 1.
 IRaf=       0 NMat=   1 IRICut=       1 DoRegI=T DoRafI=F ISym2E= 0 JSym2E=0.

 Cycle   1  Pass 1  IDiag  1:
 E= -192.408995615116    
 DIIS: error= 1.14D-03 at cycle   1 NSaved=   1.
 NSaved= 1 IEnMin= 1 EnMin= -192.408995615116     IErMin= 1 ErrMin= 1.14D-03
 ErrMax= 1.14D-03 EMaxC= 1.00D-01 BMatC= 1.54D-03 BMatP= 1.54D-03
 IDIUse=3 WtCom= 9.89D-01 WtEn= 1.14D-02
 Coeff-Com:  0.100D+01
 Coeff-En:   0.100D+01
 Coeff:      0.100D+01
 Gap=     0.161 Goal=   None    Shift=    0.000
 Gap=     0.207 Goal=   None    Shift=    0.000
 GapD=    0.161 DampG=1.000 DampE=1.000 DampFc=1.0000 IDamp=-1.
 RMSDP=7.48D-04 MaxDP=1.43D-02              OVMax= 3.12D-02

 Cycle   2  Pass 1  IDiag  1:
 E= -192.409981941118     Delta-E=       -0.000986326003 Rises=F Damp=F
 DIIS: error= 3.56D-04 at cycle   2 NSaved=   2.
 NSaved= 2 IEnMin= 2 EnMin= -192.409981941118     IErMin= 2 ErrMin= 3.56D-04
 ErrMax= 3.56D-04 EMaxC= 1.00D-01 BMatC= 1.33D-04 BMatP= 1.54D-03
 IDIUse=3 WtCom= 9.96D-01 WtEn= 3.56D-03
 Coeff-Com:  0.155D-01 0.985D+00
 Coeff-En:   0.000D+00 0.100D+01
 Coeff:      0.154D-01 0.985D+00
 Gap=     0.159 Goal=   None    Shift=    0.000
 Gap=     0.154 Goal=   None    Shift=    0.000
 RMSDP=2.10D-04 MaxDP=9.50D-03 DE=-9.86D-04 OVMax= 1.02D-02

 Cycle   3  Pass 1  IDiag  1:
 E= -192.410033584791     Delta-E=       -0.000051643673 Rises=F Damp=F
 DIIS: error= 3.73D-04 at cycle   3 NSaved=   3.
 NSaved= 3 IEnMin= 3 EnMin= -192.410033584791     IErMin= 2 ErrMin= 3.56D-04
 ErrMax= 3.73D-04 EMaxC= 1.00D-01 BMatC= 1.92D-04 BMatP= 1.33D-04
 IDIUse=3 WtCom= 3.41D-01 WtEn= 6.59D-01
 Coeff-Com: -0.520D-01 0.588D+00 0.464D+00
 Coeff-En:   0.000D+00 0.219D-01 0.978D+00
 Coeff:     -0.177D-01 0.215D+00 0.803D+00
 Gap=     0.159 Goal=   None    Shift=    0.000
 Gap=     0.154 Goal=   None    Shift=    0.000
 RMSDP=1.72D-04 MaxDP=6.79D-03 DE=-5.16D-05 OVMax= 1.18D-02

 Cycle   4  Pass 1  IDiag  1:
 E= -192.410004305556     Delta-E=        0.000029279236 Rises=F Damp=F
 DIIS: error= 4.73D-04 at cycle   4 NSaved=   4.
 NSaved= 4 IEnMin= 3 EnMin= -192.410033584791     IErMin= 2 ErrMin= 3.56D-04
 ErrMax= 4.73D-04 EMaxC= 1.00D-01 BMatC= 3.69D-04 BMatP= 1.33D-04
 IDIUse=3 WtCom= 3.15D-01 WtEn= 6.85D-01
 Coeff-Com: -0.238D-01 0.169D-01 0.595D+00 0.412D+00
 Coeff-En:   0.000D+00 0.000D+00 0.581D+00 0.419D+00
 Coeff:     -0.749D-02 0.531D-02 0.585D+00 0.417D+00
 Gap=     0.159 Goal=   None    Shift=    0.000
 Gap=     0.154 Goal=   None    Shift=    0.000
 RMSDP=9.46D-05 MaxDP=4.27D-03 DE= 2.93D-05 OVMax= 5.31D-03

 Cycle   5  Pass 1  IDiag  1:
 E= -192.410101201060     Delta-E=       -0.000096895504 Rises=F Damp=F
 DIIS: error= 9.49D-05 at cycle   5 NSaved=   5.
 NSaved= 5 IEnMin= 5 EnMin= -192.410101201060     IErMin= 5 ErrMin= 9.49D-05
 ErrMax= 9.49D-05 EMaxC= 1.00D-01 BMatC= 8.73D-06 BMatP= 1.33D-04
 IDIUse=1 WtCom= 1.00D+00 WtEn= 0.00D+00
 Coeff-Com:  0.442D-02-0.202D+00 0.239D+00 0.264D+00 0.695D+00
 Coeff:      0.442D-02-0.202D+00 0.239D+00 0.264D+00 0.695D+00
 Gap=     0.159 Goal=   None    Shift=    0.000
 Gap=     0.154 Goal=   None    Shift=    0.000
 RMSDP=3.98D-05 MaxDP=1.20D-03 DE=-9.69D-05 OVMax= 2.31D-03

 Cycle   6  Pass 1  IDiag  1:
 E= -192.410105886231     Delta-E=       -0.000004685171 Rises=F Damp=F
 DIIS: error= 3.32D-05 at cycle   6 NSaved=   6.
 NSaved= 6 IEnMin= 6 EnMin= -192.410105886231     IErMin= 6 ErrMin= 3.32D-05
 ErrMax= 3.32D-05 EMaxC= 1.00D-01 BMatC= 1.46D-06 BMatP= 8.73D-06
 IDIUse=1 WtCom= 1.00D+00 WtEn= 0.00D+00
 Coeff-Com:  0.671D-02-0.102D+00-0.199D-01 0.240D-01 0.347D+00 0.744D+00
 Coeff:      0.671D-02-0.102D+00-0.199D-01 0.240D-01 0.347D+00 0.744D+00
 Gap=     0.159 Goal=   None    Shift=    0.000
 Gap=     0.155 Goal=   None    Shift=    0.000
 RMSDP=1.60D-05 MaxDP=4.74D-04 DE=-4.69D-06 OVMax= 9.34D-04

 Cycle   7  Pass 1  IDiag  1:
 E= -192.410106738925     Delta-E=       -0.000000852694 Rises=F Damp=F
 DIIS: error= 1.67D-05 at cycle   7 NSaved=   7.
 NSaved= 7 IEnMin= 7 EnMin= -192.410106738925     IErMin= 7 ErrMin= 1.67D-05
 ErrMax= 1.67D-05 EMaxC= 1.00D-01 BMatC= 2.28D-07 BMatP= 1.46D-06
 IDIUse=1 WtCom= 1.00D+00 WtEn= 0.00D+00
 Coeff-Com:  0.171D-02-0.167D-02-0.487D-01-0.418D-01 0.187D-01 0.290D+00
 Coeff-Com:  0.782D+00
 Coeff:      0.171D-02-0.167D-02-0.487D-01-0.418D-01 0.187D-01 0.290D+00
 Coeff:      0.782D+00
 Gap=     0.159 Goal=   None    Shift=    0.000
 Gap=     0.155 Goal=   None    Shift=    0.000
 RMSDP=6.49D-06 MaxDP=3.19D-04 DE=-8.53D-07 OVMax= 4.58D-04

 Cycle   8  Pass 1  IDiag  1:
 E= -192.410106941976     Delta-E=       -0.000000203051 Rises=F Damp=F
 DIIS: error= 6.15D-06 at cycle   8 NSaved=   8.
 NSaved= 8 IEnMin= 8 EnMin= -192.410106941976     IErMin= 8 ErrMin= 6.15D-06
 ErrMax= 6.15D-06 EMaxC= 1.00D-01 BMatC= 5.31D-08 BMatP= 2.28D-07
 IDIUse=1 WtCom= 1.00D+00 WtEn= 0.00D+00
 Coeff-Com: -0.146D-02 0.305D-01-0.552D-02-0.184D-01-0.982D-01-0.128D+00
 Coeff-Com:  0.210D+00 0.101D+01
 Coeff:     -0.146D-02 0.305D-01-0.552D-02-0.184D-01-0.982D-01-0.128D+00
 Coeff:      0.210D+00 0.101D+01
 Gap=     0.159 Goal=   None    Shift=    0.000
 Gap=     0.155 Goal=   None    Shift=    0.000
 RMSDP=4.67D-06 MaxDP=1.29D-04 DE=-2.03D-07 OVMax= 4.21D-04

 Cycle   9  Pass 1  IDiag  1:
 E= -192.410107030045     Delta-E=       -0.000000088070 Rises=F Damp=F
 DIIS: error= 3.38D-06 at cycle   9 NSaved=   9.
 NSaved= 9 IEnMin= 9 EnMin= -192.410107030045     IErMin= 9 ErrMin= 3.38D-06
 ErrMax= 3.38D-06 EMaxC= 1.00D-01 BMatC= 1.60D-08 BMatP= 5.31D-08
 IDIUse=1 WtCom= 1.00D+00 WtEn= 0.00D+00
 Coeff-Com: -0.102D-02 0.134D-01 0.659D-02-0.182D-03-0.494D-01-0.115D+00
 Coeff-Com: -0.891D-01 0.398D+00 0.836D+00
 Coeff:     -0.102D-02 0.134D-01 0.659D-02-0.182D-03-0.494D-01-0.115D+00
 Coeff:     -0.891D-01 0.398D+00 0.836D+00
 Gap=     0.159 Goal=   None    Shift=    0.000
 Gap=     0.155 Goal=   None    Shift=    0.000
 RMSDP=2.72D-06 MaxDP=9.48D-05 DE=-8.81D-08 OVMax= 2.29D-04

 Cycle  10  Pass 1  IDiag  1:
 E= -192.410107053927     Delta-E=       -0.000000023882 Rises=F Damp=F
 DIIS: error= 2.35D-06 at cycle  10 NSaved=  10.
 NSaved=10 IEnMin=10 EnMin= -192.410107053927     IErMin=10 ErrMin= 2.35D-06
 ErrMax= 2.35D-06 EMaxC= 1.00D-01 BMatC= 7.32D-09 BMatP= 1.60D-08
 IDIUse=1 WtCom= 1.00D+00 WtEn= 0.00D+00
 Coeff-Com: -0.511D-04-0.298D-02 0.660D-02 0.693D-02 0.503D-02-0.232D-01
 Coeff-Com: -0.120D+00-0.112D+00 0.487D+00 0.753D+00
 Coeff:     -0.511D-04-0.298D-02 0.660D-02 0.693D-02 0.503D-02-0.232D-01
 Coeff:     -0.120D+00-0.112D+00 0.487D+00 0.753D+00
 Gap=     0.159 Goal=   None    Shift=    0.000
 Gap=     0.155 Goal=   None    Shift=    0.000
 RMSDP=1.46D-06 MaxDP=4.48D-05 DE=-2.39D-08 OVMax= 1.26D-04

 Cycle  11  Pass 1  IDiag  1:
 E= -192.410107060558     Delta-E=       -0.000000006631 Rises=F Damp=F
 DIIS: error= 1.01D-06 at cycle  11 NSaved=  11.
 NSaved=11 IEnMin=11 EnMin= -192.410107060558     IErMin=11 ErrMin= 1.01D-06
 ErrMax= 1.01D-06 EMaxC= 1.00D-01 BMatC= 1.15D-09 BMatP= 7.32D-09
 IDIUse=1 WtCom= 1.00D+00 WtEn= 0.00D+00
 Coeff-Com:  0.273D-03-0.542D-02 0.629D-03 0.291D-02 0.171D-01 0.248D-01
 Coeff-Com: -0.289D-01-0.182D+00-0.188D-01 0.356D+00 0.834D+00
 Coeff:      0.273D-03-0.542D-02 0.629D-03 0.291D-02 0.171D-01 0.248D-01
 Coeff:     -0.289D-01-0.182D+00-0.188D-01 0.356D+00 0.834D+00
 Gap=     0.159 Goal=   None    Shift=    0.000
 Gap=     0.155 Goal=   None    Shift=    0.000
 RMSDP=7.15D-07 MaxDP=2.69D-05 DE=-6.63D-09 OVMax= 5.91D-05

 Cycle  12  Pass 1  IDiag  1:
 E= -192.410107061701     Delta-E=       -0.000000001143 Rises=F Damp=F
 DIIS: error= 1.62D-07 at cycle  12 NSaved=  12.
 NSaved=12 IEnMin=12 EnMin= -192.410107061701     IErMin=12 ErrMin= 1.62D-07
 ErrMax= 1.62D-07 EMaxC= 1.00D-01 BMatC= 4.01D-11 BMatP= 1.15D-09
 IDIUse=1 WtCom= 1.00D+00 WtEn= 0.00D+00
 Coeff-Com:  0.426D-04-0.345D-03-0.670D-03-0.356D-03 0.157D-02 0.538D-02
 Coeff-Com:  0.824D-02-0.129D-01-0.466D-01-0.301D-01 0.108D+00 0.967D+00
 Coeff:      0.426D-04-0.345D-03-0.670D-03-0.356D-03 0.157D-02 0.538D-02
 Coeff:      0.824D-02-0.129D-01-0.466D-01-0.301D-01 0.108D+00 0.967D+00
 Gap=     0.159 Goal=   None    Shift=    0.000
 Gap=     0.155 Goal=   None    Shift=    0.000
 RMSDP=1.30D-07 MaxDP=3.56D-06 DE=-1.14D-09 OVMax= 9.52D-06

 Cycle  13  Pass 1  IDiag  1:
 E= -192.410107061737     Delta-E=       -0.000000000036 Rises=F Damp=F
 DIIS: error= 7.19D-08 at cycle  13 NSaved=  13.
 NSaved=13 IEnMin=13 EnMin= -192.410107061737     IErMin=13 ErrMin= 7.19D-08
 ErrMax= 7.19D-08 EMaxC= 1.00D-01 BMatC= 4.05D-12 BMatP= 4.01D-11
 IDIUse=1 WtCom= 1.00D+00 WtEn= 0.00D+00
 Coeff-Com: -0.175D-04 0.446D-03-0.186D-03-0.329D-03-0.134D-02-0.102D-02
 Coeff-Com:  0.435D-02 0.136D-01-0.752D-02-0.376D-01-0.524D-01 0.200D+00
 Coeff-Com:  0.882D+00
 Coeff:     -0.175D-04 0.446D-03-0.186D-03-0.329D-03-0.134D-02-0.102D-02
 Coeff:      0.435D-02 0.136D-01-0.752D-02-0.376D-01-0.524D-01 0.200D+00
 Coeff:      0.882D+00
 Gap=     0.159 Goal=   None    Shift=    0.000
 Gap=     0.155 Goal=   None    Shift=    0.000
 RMSDP=2.61D-08 MaxDP=5.89D-07 DE=-3.63D-11 OVMax= 1.17D-06

 Cycle  14  Pass 1  IDiag  1:
 E= -192.410107061737     Delta-E=        0.000000000000 Rises=F Damp=F
 DIIS: error= 2.21D-08 at cycle  14 NSaved=  14.
 NSaved=14 IEnMin=13 EnMin= -192.410107061737     IErMin=14 ErrMin= 2.21D-08
 ErrMax= 2.21D-08 EMaxC= 1.00D-01 BMatC= 3.78D-13 BMatP= 4.05D-12
 IDIUse=1 WtCom= 1.00D+00 WtEn= 0.00D+00
 Coeff-Com: -0.692D-05 0.124D-03 0.550D-05-0.565D-04-0.419D-03-0.629D-03
 Coeff-Com:  0.436D-03 0.397D-02 0.171D-02-0.642D-02-0.202D-01-0.253D-01
 Coeff-Com:  0.200D+00 0.847D+00
 Coeff:     -0.692D-05 0.124D-03 0.550D-05-0.565D-04-0.419D-03-0.629D-03
 Coeff:      0.436D-03 0.397D-02 0.171D-02-0.642D-02-0.202D-01-0.253D-01
 Coeff:      0.200D+00 0.847D+00
 Gap=     0.159 Goal=   None    Shift=    0.000
 Gap=     0.155 Goal=   None    Shift=    0.000
 RMSDP=6.35D-09 MaxDP=1.77D-07 DE= 3.41D-13 OVMax= 2.68D-07

 SCF Done:  E(UB3LYP) =  -192.410107062     A.U. after   14 cycles
             Convg  =    0.6347D-08             -V/T =  2.0067
 <Sx>= 0.0000 <Sy>= 0.0000 <Sz>= 0.5000 <S**2>= 0.7610 S= 0.5055
 <L.S>= 0.000000000000E+00
 KE= 1.911285425653D+02 PE=-6.675911044838D+02 EE= 1.745290108744D+02
 Annihilation of the first spin contaminant:
 S**2 before annihilation     0.7610,   after     0.7501
 Leave Link  502 at Thu Oct 29 19:45:34 2009, MaxMem= 1258291200 cpu:     274.3
 (Enter /home/g09/l508.exe)
 QCSCF skips out because SCF is already converged.
 Leave Link  508 at Thu Oct 29 19:45:34 2009, MaxMem= 1258291200 cpu:       0.0
 (Enter /home/g09/l801.exe)
 Range of M.O.s used for correlation:     1   137
 NBasis=   137 NAE=    16 NBE=    15 NFC=     0 NFV=     0
 NROrb=    137 NOA=    16 NOB=    15 NVA=   121 NVB=   122

 **** Warning!!: The largest alpha MO coefficient is  0.30144779D+02


 **** Warning!!: The largest beta MO coefficient is  0.30225680D+02

 Leave Link  801 at Thu Oct 29 19:45:34 2009, MaxMem= 1258291200 cpu:       0.3
 (Enter /home/g09/l1101.exe)
 Leave Link 1101 at Thu Oct 29 19:45:34 2009, MaxMem= 1258291200 cpu:       0.3
 (Enter /home/g09/l1102.exe)
 Symmetrizing basis deriv contribution to polar:
 IMax=3 JMax=2 DiffMx= 0.00D+00
 Leave Link 1102 at Thu Oct 29 19:45:34 2009, MaxMem= 1258291200 cpu:       0.4
 (Enter /home/g09/l1110.exe)
 Leave Link 1110 at Thu Oct 29 19:45:34 2009, MaxMem= 1258291200 cpu:       0.3
 (Enter /home/g09/l1002.exe)
 Minotr:  UHF open shell wavefunction.
 Leave Link 1002 at Thu Oct 29 19:45:34 2009, MaxMem= 1258291200 cpu:       0.3
 (Enter /home/g09/l701.exe)
 Compute integral first derivatives.
 ... and contract with generalized density number  0.
 Leave Link  701 at Thu Oct 29 19:45:35 2009, MaxMem= 1258291200 cpu:       1.7
 (Enter /home/g09/l702.exe)
 L702 exits ... SP integral derivatives will be done elsewhere.
 Leave Link  702 at Thu Oct 29 19:45:35 2009, MaxMem= 1258291200 cpu:       0.3
 (Enter /home/g09/l703.exe)
 Compute integral first derivatives, UseDBF=F ICtDFT=           0.
 Integral derivatives from FoFDir, PRISM(SPDF).
 Calling FoFJK, ICntrl=      2127 FMM=F ISym2X=0 I1Cent= 0 IOpClX= 1 NMat=1 NMatS=1 NMatT=0.
 FoFCou: FMM=F IPFlag=           0 FMFlag=      100000 FMFlg1=         800
         NFxFlg=           0 DoJE=F BraDBF=F KetDBF=F FulRan=T
         Omega=  0.000000  0.000000  1.000000  0.000000  0.000000 ICntrl=    2127 IOpCl=  1
         NMat0=    1 NMatS0=    1 NMatT0=    0 NMatD0=    1 NMtDS0=    0 NMtDT0=    0
         I1Cent=           0 NGrid=           0.
 Symmetry not used in FoFCou.
 Leave Link  703 at Thu Oct 29 19:45:40 2009, MaxMem= 1258291200 cpu:      44.1
 (Enter /home/g09/l716.exe)
 Dipole        = 4.14881812D-02-1.30923039D-01-6.22804803D-01
 Polarizability= 0.00000000D+00 0.00000000D+00 0.00000000D+00
                 0.00000000D+00 0.00000000D+00 0.00000000D+00
 -------------------------------------------------------------------
 Center     Atomic                   Forces (Hartrees/Bohr)
 Number     Number              X              Y              Z
 -------------------------------------------------------------------
      1        6           0.018004694    0.011946503   -0.008989583
      2        6          -0.008559954   -0.014286414   -0.012596596
      3        6           0.000967357   -0.000651704   -0.001248001
      4        8          -0.003284626    0.001021429   -0.000175520
      5        1          -0.000015298   -0.000279695   -0.000226757
      6        1           0.001099721    0.001131027   -0.000810370
      7        1          -0.006370985    0.003486555    0.024601143
      8        1          -0.001758916   -0.002313892   -0.000438362
      9        1          -0.000081993   -0.000053809   -0.000115954
 -------------------------------------------------------------------
 Cartesian Forces:  Max     0.024601143 RMS     0.007860898
 Leave Link  716 at Thu Oct 29 19:45:40 2009, MaxMem= 1258291200 cpu:       0.3
 (Enter /home/g09/l123.exe)
 IRC-IRC-IRC-IRC-IRC-IRC-IRC-IRC-IRC-IRC-IRC-IRC-IRC-IRC-IRC-IRC-IRC-IRC
 Pt  2 Step number   1 out of a maximum of  25
 Using modified Bulirsch-Stoer corrector interation.
   Using distance weighted interpolants to fit PES.
    Cycle     1 NS=     2
    Cycle     2 NS=     4 Truncation Error =  0.000205578
    Cycle     3 NS=     6 Truncation Error =  0.000016096
    Cycle     4 NS=     8 Truncation Error =  0.000002895
    Cycle     5 NS=    12 Truncation Error =  0.000000424
 BS completed in    5 cycles and      32 integration steps.
 SUMMARY OF CORRECTOR INTEGRATION:
   Original End Point Energy  =  -192.410107
   Corrected End Point Energy =  -192.410108
   Old End-Start Dist.        =     0.106130
   New End-Start Dist.        =     0.106127
   New End-Old End Dist.      =     0.001066
 CORRECTOR INTEGRATION CONVERGENCE:
   Recorrection delta-x convergence threshold:    0.010000
   Delta-x Convergence Met
 Point Number:   2          Path Number:   1
                    CURRENT STRUCTURE
                Cartesian Coordinates (Ang):                
 ---------------------------------------------------------------------
 Center     Atomic                     Coordinates (Angstroms)
 Number     Number                        X           Y           Z
 ---------------------------------------------------------------------
      1          6                   -0.744536    0.038033   -1.597541
      2          6                   -0.860143    0.037865   -0.165417
      3          6                   -0.016967   -0.189896    0.862857
      4          8                    1.326083    0.120968    0.882006
      5          1                   -0.333909   -0.587023    1.825547
      6          1                    0.072530   -0.459671   -2.135206
      7          1                   -1.648424   -0.676990   -0.813147
      8          1                   -1.408756    0.677531   -2.179871
      9          1                    1.581328    0.483655    0.021965
 ---------------------------------------------------------------------
   CHANGE IN THE REACTION COORDINATE =    0.10613
   NET REACTION COORDINATE UP TO THIS POINT =    0.21229
  # OF POINTS ALONG THE PATH =   2
  # OF STEPS =   1

 Calculating another point on the path.
 Point Number  3 in REVERSE path direction.
 Using LQA Reaction Path Following.
   LQA: T_Est iteration completed in    3 iterations.
 IRC-IRC-IRC-IRC-IRC-IRC-IRC-IRC-IRC-IRC-IRC-IRC-IRC-IRC-IRC-IRC-IRC-IRC
 Leave Link  123 at Thu Oct 29 19:45:40 2009, MaxMem= 1258291200 cpu:       0.1
 (Enter /home/g09/l202.exe)
                          Input orientation:                          
 ---------------------------------------------------------------------
 Center     Atomic      Atomic             Coordinates (Angstroms)
 Number     Number       Type             X           Y           Z
 ---------------------------------------------------------------------
      1          6           0       -0.741476    0.040066   -1.599068
      2          6           0       -0.861613    0.035404   -0.167590
      3          6           0       -0.016798   -0.190005    0.862654
      4          8           0        1.325660    0.121100    0.881983
      5          1           0       -0.333937   -0.587581    1.825064
      6          1           0        0.074848   -0.457382   -2.136894
      7          1           0       -1.661228   -0.669667   -0.762983
      8          1           0       -1.412333    0.672888   -2.180788
      9          1           0        1.581161    0.483544    0.021740
 ---------------------------------------------------------------------
                    Distance matrix (angstroms):
                    1          2          3          4          5
     1  C    0.000000
     2  C    1.436519   0.000000
     3  C    2.576464   1.351268   0.000000
     4  O    3.230361   2.427573   1.378170   0.000000
     5  H    3.504955   2.153421   1.088521   2.036147   0.000000
     6  H    1.096857   2.235611   3.012835   3.318553   3.985118
     7  H    1.431329   1.221066   2.361551   3.500390   2.909713
     8  H    1.090371   2.182349   3.457548   4.145074   4.335732
     9  H    2.866764   2.490748   1.927246   0.967814   2.840227
                    6          7          8          9
     6  H    0.000000
     7  H    2.224108   0.000000
     8  H    1.868460   1.968393   0.000000
     9  H    2.795357   3.529699   3.721288   0.000000
 Symmetry turned off by external request.
 Stoichiometry    C3H5O(2)
 Framework group  C1[X(C3H5O)]
 Deg. of freedom    21
 Full point group                 C1      NOp   1
 Rotational constants (GHZ):     23.0085590      5.1113310      4.2999413
 Leave Link  202 at Thu Oct 29 19:45:40 2009, MaxMem= 1258291200 cpu:       0.0
 (Enter /home/g09/l301.exe)
 Standard basis: Aug-CC-pVDZ (5D, 7F)
 Ernie: Thresh=  0.10000D-02 Tol=  0.10000D-05 Strict=F.
 Ernie:  8 primitive shells out of 135 were deleted.
 Integral buffers will be    131072 words long.
 Raffenetti 2 integral format.
 Two-electron integral symmetry is turned off.
   137 basis functions,   227 primitive gaussians,   145 cartesian basis functions
    16 alpha electrons       15 beta electrons
       nuclear repulsion energy       109.5085563466 Hartrees.
 IExCor=  402 DFT=T Ex+Corr=B3LYP ExCW=0 ScaHFX=  0.200000
 ScaDFX=  0.800000  0.720000  1.000000  0.810000 ScalE2=  1.000000  1.000000
 IRadAn=      5 IRanWt=     -1 IRanGd=            0 ICorTp=0
 NAtoms=    9 NActive=    9 NUniq=    9 SFac= 7.50D-01 NAtFMM=   80 NAOKFM=F Big=F
 Leave Link  301 at Thu Oct 29 19:45:40 2009, MaxMem= 1258291200 cpu:       0.6
 (Enter /home/g09/l302.exe)
 NPDir=0 NMtPBC=     1 NCelOv=     1 NCel=       1 NClECP=     1 NCelD=      1
         NCelK=      1 NCelE2=     1 NClLst=     1 CellRange=     0.0.
 One-electron integrals computed using PRISM.
 NBasis=   137 RedAO= T  NBF=   137
 NBsUse=   137 1.00D-06 NBFU=   137
 Precomputing XC quadrature grid using
 IXCGrd= 2 IRadAn=           5 IRanWt=          -1 IRanGd=           0 AccXCQ= 1.00D-10.
 NRdTot=     769 NPtTot=      206766 NUsed=      212279 NTot=      212311
 NSgBfM=   145   145   145   145   145 NAtAll=     9     9.
 Leave Link  302 at Thu Oct 29 19:45:41 2009, MaxMem= 1258291200 cpu:       2.2
 (Enter /home/g09/l303.exe)
 DipDrv:  MaxL=1.
 Leave Link  303 at Thu Oct 29 19:45:41 2009, MaxMem= 1258291200 cpu:       0.4
 (Enter /home/g09/l401.exe)
 Initial guess read from the read-write file.
 B after Tr=     0.000000    0.000000    0.000000
         Rot=    1.000000    0.000000    0.000000    0.000000 Ang=   0.00 deg.
 Guess basis will be translated and rotated to current coordinates.
 Initial guess <Sx>= 0.0000 <Sy>= 0.0000 <Sz>= 0.5000 <S**2>= 0.7611 S= 0.5055
 Generating alternative initial guess.
 Harris functional with IExCor=  402 diagonalized for initial guess.
 ExpMin= 2.97D-02 ExpMax= 1.17D+04 ExpMxC= 4.01D+02 IAcc=3 IRadAn=         5 AccDes= 0.00D+00
 HarFok:  IExCor=  402 AccDes= 0.00D+00 IRadAn=         5 IDoV= 1
 ScaDFX=  1.000000  1.000000  1.000000  1.000000
 FoFCou: FMM=F IPFlag=           0 FMFlag=      100000 FMFlg1=           0
         NFxFlg=           0 DoJE=T BraDBF=F KetDBF=T FulRan=T
         Omega=  0.000000  0.000000  1.000000  0.000000  0.000000 ICntrl=     500 IOpCl=  0
         NMat0=    1 NMatS0=    1 NMatT0=    0 NMatD0=    1 NMtDS0=    0 NMtDT0=    0
         I1Cent=           4 NGrid=           0.
 Symmetry not used in FoFCou.
 Harris En= -192.435514030072    
 Leave Link  401 at Thu Oct 29 19:45:42 2009, MaxMem= 1258291200 cpu:       9.3
 (Enter /home/g09/l502.exe)
 UHF open shell SCF:
 Requested convergence on RMS density matrix=1.00D-08 within  64 cycles.
 Requested convergence on MAX density matrix=1.00D-06.
 Requested convergence on             energy=1.00D-06.
 No special actions if energy rises.
 Using DIIS extrapolation, IDIIS=  1040.
 Two-electron integral symmetry not used.
       212185 words used for storage of precomputed grid.
 Keep R1 and R2 ints in memory in canonical form, NReq=113891672.
 IEnd=      282846 IEndB=      282846 NGot=  1258291200 MDV=  1145980911
 LenX=  1145980911 LenY=  1145959445
 Symmetry not used in FoFDir.
 MinBra= 0 MaxBra= 2 Meth= 1.
 IRaf=       0 NMat=   1 IRICut=       1 DoRegI=T DoRafI=F ISym2E= 0 JSym2E=0.

 Cycle   1  Pass 1  IDiag  1:
 E= -192.412602004144    
 DIIS: error= 1.02D-03 at cycle   1 NSaved=   1.
 NSaved= 1 IEnMin= 1 EnMin= -192.412602004144     IErMin= 1 ErrMin= 1.02D-03
 ErrMax= 1.02D-03 EMaxC= 1.00D-01 BMatC= 1.49D-03 BMatP= 1.49D-03
 IDIUse=3 WtCom= 9.90D-01 WtEn= 1.02D-02
 Coeff-Com:  0.100D+01
 Coeff-En:   0.100D+01
 Coeff:      0.100D+01
 Gap=     0.162 Goal=   None    Shift=    0.000
 Gap=     0.209 Goal=   None    Shift=    0.000
 GapD=    0.162 DampG=1.000 DampE=1.000 DampFc=1.0000 IDamp=-1.
 RMSDP=7.55D-04 MaxDP=1.63D-02              OVMax= 3.01D-02

 Cycle   2  Pass 1  IDiag  1:
 E= -192.413533345644     Delta-E=       -0.000931341500 Rises=F Damp=F
 DIIS: error= 3.40D-04 at cycle   2 NSaved=   2.
 NSaved= 2 IEnMin= 2 EnMin= -192.413533345644     IErMin= 2 ErrMin= 3.40D-04
 ErrMax= 3.40D-04 EMaxC= 1.00D-01 BMatC= 1.29D-04 BMatP= 1.49D-03
 IDIUse=3 WtCom= 9.97D-01 WtEn= 3.40D-03
 Coeff-Com:  0.208D-01 0.979D+00
 Coeff-En:   0.000D+00 0.100D+01
 Coeff:      0.207D-01 0.979D+00
 Gap=     0.160 Goal=   None    Shift=    0.000
 Gap=     0.157 Goal=   None    Shift=    0.000
 RMSDP=1.94D-04 MaxDP=8.89D-03 DE=-9.31D-04 OVMax= 8.70D-03

 Cycle   3  Pass 1  IDiag  1:
 E= -192.413571162370     Delta-E=       -0.000037816726 Rises=F Damp=F
 DIIS: error= 4.11D-04 at cycle   3 NSaved=   3.
 NSaved= 3 IEnMin= 3 EnMin= -192.413571162370     IErMin= 2 ErrMin= 3.40D-04
 ErrMax= 4.11D-04 EMaxC= 1.00D-01 BMatC= 1.99D-04 BMatP= 1.29D-04
 IDIUse=3 WtCom= 3.30D-01 WtEn= 6.70D-01
 Coeff-Com: -0.477D-01 0.596D+00 0.452D+00
 Coeff-En:   0.000D+00 0.198D+00 0.802D+00
 Coeff:     -0.158D-01 0.329D+00 0.686D+00
 Gap=     0.161 Goal=   None    Shift=    0.000
 Gap=     0.157 Goal=   None    Shift=    0.000
 RMSDP=1.52D-04 MaxDP=5.62D-03 DE=-3.78D-05 OVMax= 1.01D-02

 Cycle   4  Pass 1  IDiag  1:
 E= -192.413576490014     Delta-E=       -0.000005327644 Rises=F Damp=F
 DIIS: error= 4.04D-04 at cycle   4 NSaved=   4.
 NSaved= 4 IEnMin= 4 EnMin= -192.413576490014     IErMin= 2 ErrMin= 3.40D-04
 ErrMax= 4.04D-04 EMaxC= 1.00D-01 BMatC= 2.32D-04 BMatP= 1.29D-04
 IDIUse=3 WtCom= 3.32D-01 WtEn= 6.68D-01
 Coeff-Com: -0.231D-01 0.271D-01 0.528D+00 0.468D+00
 Coeff-En:   0.000D+00 0.000D+00 0.482D+00 0.518D+00
 Coeff:     -0.767D-02 0.901D-02 0.497D+00 0.501D+00
 Gap=     0.161 Goal=   None    Shift=    0.000
 Gap=     0.157 Goal=   None    Shift=    0.000
 RMSDP=8.10D-05 MaxDP=3.57D-03 DE=-5.33D-06 OVMax= 4.80D-03

 Cycle   5  Pass 1  IDiag  1:
 E= -192.413638268435     Delta-E=       -0.000061778421 Rises=F Damp=F
 DIIS: error= 9.86D-05 at cycle   5 NSaved=   5.
 NSaved= 5 IEnMin= 5 EnMin= -192.413638268435     IErMin= 5 ErrMin= 9.86D-05
 ErrMax= 9.86D-05 EMaxC= 1.00D-01 BMatC= 1.06D-05 BMatP= 1.29D-04
 IDIUse=1 WtCom= 1.00D+00 WtEn= 0.00D+00
 Coeff-Com:  0.277D-02-0.180D+00 0.181D+00 0.329D+00 0.667D+00
 Coeff:      0.277D-02-0.180D+00 0.181D+00 0.329D+00 0.667D+00
 Gap=     0.161 Goal=   None    Shift=    0.000
 Gap=     0.157 Goal=   None    Shift=    0.000
 RMSDP=3.47D-05 MaxDP=7.95D-04 DE=-6.18D-05 OVMax= 2.10D-03

 Cycle   6  Pass 1  IDiag  1:
 E= -192.413642747070     Delta-E=       -0.000004478635 Rises=F Damp=F
 DIIS: error= 3.36D-05 at cycle   6 NSaved=   6.
 NSaved= 6 IEnMin= 6 EnMin= -192.413642747070     IErMin= 6 ErrMin= 3.36D-05
 ErrMax= 3.36D-05 EMaxC= 1.00D-01 BMatC= 1.37D-06 BMatP= 1.06D-05
 IDIUse=1 WtCom= 1.00D+00 WtEn= 0.00D+00
 Coeff-Com:  0.632D-02-0.990D-01-0.353D-01 0.442D-01 0.348D+00 0.736D+00
 Coeff:      0.632D-02-0.990D-01-0.353D-01 0.442D-01 0.348D+00 0.736D+00
 Gap=     0.161 Goal=   None    Shift=    0.000
 Gap=     0.157 Goal=   None    Shift=    0.000
 RMSDP=1.49D-05 MaxDP=4.64D-04 DE=-4.48D-06 OVMax= 7.37D-04

 Cycle   7  Pass 1  IDiag  1:
 E= -192.413643462808     Delta-E=       -0.000000715738 Rises=F Damp=F
 DIIS: error= 1.34D-05 at cycle   7 NSaved=   7.
 NSaved= 7 IEnMin= 7 EnMin= -192.413643462808     IErMin= 7 ErrMin= 1.34D-05
 ErrMax= 1.34D-05 EMaxC= 1.00D-01 BMatC= 1.78D-07 BMatP= 1.37D-06
 IDIUse=1 WtCom= 1.00D+00 WtEn= 0.00D+00
 Coeff-Com:  0.173D-02-0.540D-02-0.417D-01-0.410D-01 0.265D-01 0.280D+00
 Coeff-Com:  0.780D+00
 Coeff:      0.173D-02-0.540D-02-0.417D-01-0.410D-01 0.265D-01 0.280D+00
 Coeff:      0.780D+00
 Gap=     0.161 Goal=   None    Shift=    0.000
 Gap=     0.157 Goal=   None    Shift=    0.000
 RMSDP=5.40D-06 MaxDP=2.43D-04 DE=-7.16D-07 OVMax= 3.55D-04

 Cycle   8  Pass 1  IDiag  1:
 E= -192.413643607779     Delta-E=       -0.000000144971 Rises=F Damp=F
 DIIS: error= 5.98D-06 at cycle   8 NSaved=   8.
 NSaved= 8 IEnMin= 8 EnMin= -192.413643607779     IErMin= 8 ErrMin= 5.98D-06
 ErrMax= 5.98D-06 EMaxC= 1.00D-01 BMatC= 4.57D-08 BMatP= 1.78D-07
 IDIUse=1 WtCom= 1.00D+00 WtEn= 0.00D+00
 Coeff-Com: -0.907D-03 0.236D-01-0.357D-02-0.233D-01-0.775D-01-0.826D-01
 Coeff-Com:  0.266D+00 0.899D+00
 Coeff:     -0.907D-03 0.236D-01-0.357D-02-0.233D-01-0.775D-01-0.826D-01
 Coeff:      0.266D+00 0.899D+00
 Gap=     0.161 Goal=   None    Shift=    0.000
 Gap=     0.157 Goal=   None    Shift=    0.000
 RMSDP=3.46D-06 MaxDP=9.35D-05 DE=-1.45D-07 OVMax= 3.01D-04

 Cycle   9  Pass 1  IDiag  1:
 E= -192.413643666163     Delta-E=       -0.000000058384 Rises=F Damp=F
 DIIS: error= 3.90D-06 at cycle   9 NSaved=   9.
 NSaved= 9 IEnMin= 9 EnMin= -192.413643666163     IErMin= 9 ErrMin= 3.90D-06
 ErrMax= 3.90D-06 EMaxC= 1.00D-01 BMatC= 1.69D-08 BMatP= 4.57D-08
 IDIUse=1 WtCom= 1.00D+00 WtEn= 0.00D+00
 Coeff-Com: -0.102D-02 0.144D-01 0.774D-02-0.359D-02-0.524D-01-0.119D+00
 Coeff-Com: -0.733D-01 0.440D+00 0.787D+00
 Coeff:     -0.102D-02 0.144D-01 0.774D-02-0.359D-02-0.524D-01-0.119D+00
 Coeff:     -0.733D-01 0.440D+00 0.787D+00
 Gap=     0.161 Goal=   None    Shift=    0.000
 Gap=     0.157 Goal=   None    Shift=    0.000
 RMSDP=2.48D-06 MaxDP=8.39D-05 DE=-5.84D-08 OVMax= 2.04D-04

 Cycle  10  Pass 1  IDiag  1:
 E= -192.413643688194     Delta-E=       -0.000000022031 Rises=F Damp=F
 DIIS: error= 2.33D-06 at cycle  10 NSaved=  10.
 NSaved=10 IEnMin=10 EnMin= -192.413643688194     IErMin=10 ErrMin= 2.33D-06
 ErrMax= 2.33D-06 EMaxC= 1.00D-01 BMatC= 5.50D-09 BMatP= 1.69D-08
 IDIUse=1 WtCom= 1.00D+00 WtEn= 0.00D+00
 Coeff-Com: -0.151D-03-0.112D-02 0.569D-02 0.682D-02 0.316D-03-0.318D-01
 Coeff-Com: -0.120D+00-0.915D-01 0.397D+00 0.834D+00
 Coeff:     -0.151D-03-0.112D-02 0.569D-02 0.682D-02 0.316D-03-0.318D-01
 Coeff:     -0.120D+00-0.915D-01 0.397D+00 0.834D+00
 Gap=     0.161 Goal=   None    Shift=    0.000
 Gap=     0.157 Goal=   None    Shift=    0.000
 RMSDP=1.43D-06 MaxDP=4.43D-05 DE=-2.20D-08 OVMax= 1.23D-04

 Cycle  11  Pass 1  IDiag  1:
 E= -192.413643694650     Delta-E=       -0.000000006456 Rises=F Damp=F
 DIIS: error= 8.95D-07 at cycle  11 NSaved=  11.
 NSaved=11 IEnMin=11 EnMin= -192.413643694650     IErMin=11 ErrMin= 8.95D-07
 ErrMax= 8.95D-07 EMaxC= 1.00D-01 BMatC= 9.49D-10 BMatP= 5.50D-09
 IDIUse=1 WtCom= 1.00D+00 WtEn= 0.00D+00
 Coeff-Com:  0.238D-03-0.495D-02-0.217D-03 0.369D-02 0.160D-01 0.235D-01
 Coeff-Com: -0.279D-01-0.183D+00-0.704D-01 0.358D+00 0.885D+00
 Coeff:      0.238D-03-0.495D-02-0.217D-03 0.369D-02 0.160D-01 0.235D-01
 Coeff:     -0.279D-01-0.183D+00-0.704D-01 0.358D+00 0.885D+00
 Gap=     0.161 Goal=   None    Shift=    0.000
 Gap=     0.157 Goal=   None    Shift=    0.000
 RMSDP=7.45D-07 MaxDP=2.75D-05 DE=-6.46D-09 OVMax= 6.39D-05

 Cycle  12  Pass 1  IDiag  1:
 E= -192.413643695845     Delta-E=       -0.000000001195 Rises=F Damp=F
[...]
  33                   -0.03522  -0.84913
  34                   -0.02885  -0.74298
  35                   -0.02256  -0.63684
  36                   -0.01657  -0.53070
  37                   -0.01112  -0.42456
  38                   -0.00648  -0.31842
  39                   -0.00295  -0.21229
  40                   -0.00074  -0.10616
  41                    0.00000   0.00000
 --------------------------------------------------------------------------
 
 Total number of points:                   40
 Total number of gradient calculations:    56
 Total number of Hessian calculations:      0
 IRC-IRC-IRC-IRC-IRC-IRC-IRC-IRC-IRC-IRC-IRC-IRC-IRC-IRC-IRC-IRC-IRC-IRC
 Leave Link  123 at Thu Oct 29 20:20:04 2009, MaxMem= 1258291200 cpu:       0.2
 (Enter /home/g09/l202.exe)
                          Input orientation:                          
 ---------------------------------------------------------------------
 Center     Atomic      Atomic             Coordinates (Angstroms)
 Number     Number       Type             X           Y           Z
 ---------------------------------------------------------------------
      1          6           0       -0.639704    0.101459   -1.551906
      2          6           0       -0.917543   -0.092997   -0.207690
      3          6           0       -0.031183   -0.141644    0.865405
      4          8           0        1.308016    0.092620    0.818405
      5          1           0       -0.362162   -0.375269    1.874530
      6          1           0        0.375757    0.207709   -1.942247
      7          1           0       -1.962425   -0.243954    0.077577
      8          1           0       -1.444460    0.137519   -2.282922
      9          1           0        1.562410    0.378996   -0.069799
 ---------------------------------------------------------------------
                    Distance matrix (angstroms):
                    1          2          3          4          5
     1  C    0.000000
     2  C    1.386335   0.000000
     3  C    2.504554   1.392671   0.000000
     4  O    3.067910   2.457731   1.360347   0.000000
     5  H    3.470557   2.173422   1.087410   2.030718   0.000000
     6  H    1.093076   2.184430   2.858418   2.916085   3.930925
     7  H    2.126997   1.093592   2.088262   3.370148   2.409798
     8  H    1.087803   2.153454   3.462260   4.146850   4.326513
     9  H    2.668890   2.528232   1.919690   0.967282   2.837835
                    6          7          8          9
     6  H    0.000000
     7  H    3.122624   0.000000
     8  H    1.853152   2.446582   0.000000
     9  H    2.223408   3.582492   3.741321   0.000000
 Symmetry turned off by external request.
 Stoichiometry    C3H5O(2)
 Framework group  C1[X(C3H5O)]
 Deg. of freedom    21
 Full point group                 C1      NOp   1
 Rotational constants (GHZ):     20.7442381      5.6443574      4.4409519
 Leave Link  202 at Thu Oct 29 20:20:04 2009, MaxMem= 1258291200 cpu:       0.0
 (Enter /home/g09/l601.exe)
 Copying SCF densities to generalized density rwf, IOpCl= 1 IROHF=0.

 **********************************************************************

            Population analysis using the SCF density.

 **********************************************************************

 Alpha  occ. eigenvalues --  -19.19872 -10.25523 -10.19751 -10.19563  -1.08147
 Alpha  occ. eigenvalues --   -0.79463  -0.69612  -0.60331  -0.51351  -0.49431
 Alpha  occ. eigenvalues --   -0.42638  -0.41856  -0.39399  -0.36857  -0.30441
 Alpha  occ. eigenvalues --   -0.18386
 Alpha virt. eigenvalues --   -0.01694   0.00051   0.01357   0.02828   0.03277
 Alpha virt. eigenvalues --    0.04318   0.05623   0.07398   0.08090   0.08530
 Alpha virt. eigenvalues --    0.09340   0.09410   0.10662   0.10777   0.11099
 Alpha virt. eigenvalues --    0.12352   0.14389   0.16939   0.17803   0.18123
 Alpha virt. eigenvalues --    0.19506   0.20304   0.21512   0.22324   0.24106
 Alpha virt. eigenvalues --    0.25858   0.26774   0.27947   0.28516   0.30447
 Alpha virt. eigenvalues --    0.32979   0.33196   0.35732   0.37025   0.37816
 Alpha virt. eigenvalues --    0.39319   0.40198   0.40743   0.44313   0.45334
 Alpha virt. eigenvalues --    0.46750   0.48254   0.48615   0.49434   0.51155
 Alpha virt. eigenvalues --    0.52688   0.52975   0.54993   0.57296   0.58332
 Alpha virt. eigenvalues --    0.59851   0.61599   0.62683   0.63433   0.64409
 Alpha virt. eigenvalues --    0.66270   0.69756   0.70067   0.72844   0.75085
 Alpha virt. eigenvalues --    0.79035   0.79471   0.82963   0.85324   0.91287
 Alpha virt. eigenvalues --    0.91513   0.99114   1.00766   1.04325   1.06945
 Alpha virt. eigenvalues --    1.09677   1.18568   1.23732   1.25524   1.30127
 Alpha virt. eigenvalues --    1.33300   1.36054   1.36805   1.40422   1.43237
 Alpha virt. eigenvalues --    1.45726   1.48270   1.48969   1.52941   1.55860
 Alpha virt. eigenvalues --    1.59188   1.61491   1.62283   1.66780   1.71794
 Alpha virt. eigenvalues --    1.78467   1.79960   1.81657   1.83640   1.88794
 Alpha virt. eigenvalues --    1.90057   1.91593   1.94910   1.96402   1.98195
 Alpha virt. eigenvalues --    2.00876   2.12569   2.16284   2.18511   2.23562
 Alpha virt. eigenvalues --    2.31595   2.39236   2.42729   2.50878   2.57298
 Alpha virt. eigenvalues --    2.61234   2.68900   2.78711   2.83431   3.01564
 Alpha virt. eigenvalues --    3.32045   3.33236   3.35777   3.45058   3.57705
 Alpha virt. eigenvalues --    3.89881
  Beta  occ. eigenvalues --  -19.19571 -10.24708 -10.20018 -10.18746  -1.07411
  Beta  occ. eigenvalues --   -0.78542  -0.67712  -0.59587  -0.51023  -0.48799
  Beta  occ. eigenvalues --   -0.41998  -0.39534  -0.38837  -0.36527  -0.27925
  Beta virt. eigenvalues --   -0.07892  -0.01578   0.00063   0.01400   0.03233
  Beta virt. eigenvalues --    0.03990   0.04377   0.07137   0.07464   0.08247
  Beta virt. eigenvalues --    0.09205   0.09404   0.09466   0.10717   0.10941
  Beta virt. eigenvalues --    0.11347   0.12596   0.14517   0.17202   0.18259
  Beta virt. eigenvalues --    0.18371   0.19572   0.20379   0.21964   0.22585
  Beta virt. eigenvalues --    0.24351   0.26049   0.27005   0.28187   0.28753
  Beta virt. eigenvalues --    0.30448   0.33205   0.33564   0.36045   0.37340
  Beta virt. eigenvalues --    0.37983   0.39740   0.40832   0.41006   0.44820
  Beta virt. eigenvalues --    0.45893   0.47097   0.48554   0.49205   0.50196
  Beta virt. eigenvalues --    0.51419   0.53086   0.53181   0.55214   0.57758
  Beta virt. eigenvalues --    0.58379   0.60178   0.62366   0.63296   0.63967
  Beta virt. eigenvalues --    0.64907   0.66448   0.69883   0.71448   0.73230
  Beta virt. eigenvalues --    0.75799   0.79727   0.80506   0.83172   0.85563
  Beta virt. eigenvalues --    0.91632   0.91991   0.99721   1.00982   1.04605
  Beta virt. eigenvalues --    1.07298   1.10111   1.18664   1.24364   1.26579
  Beta virt. eigenvalues --    1.31114   1.34050   1.36383   1.37070   1.41106
  Beta virt. eigenvalues --    1.43373   1.46986   1.49632   1.50404   1.53097
  Beta virt. eigenvalues --    1.56901   1.59727   1.62087   1.63201   1.66999
  Beta virt. eigenvalues --    1.71987   1.79504   1.80632   1.82026   1.84921
  Beta virt. eigenvalues --    1.89312   1.90481   1.91852   1.95315   1.96793
  Beta virt. eigenvalues --    1.99076   2.01041   2.14034   2.16890   2.19313
  Beta virt. eigenvalues --    2.24370   2.32121   2.39562   2.43151   2.50935
  Beta virt. eigenvalues --    2.57557   2.61651   2.69359   2.79291   2.83712
  Beta virt. eigenvalues --    3.01895   3.32795   3.33665   3.36606   3.45536
  Beta virt. eigenvalues --    3.58251   3.90126
          Condensed to atoms (all electrons):
              1          2          3          4          5          6
     1  C    5.672328   0.080483  -0.363920  -0.040095   0.031114   0.273042
     2  C    0.080483   5.338450  -0.176668  -0.084605  -0.165197  -0.270144
     3  C   -0.363920  -0.176668   6.244801   0.079159  -0.002410  -0.184374
     4  O   -0.040095  -0.084605   0.079159   8.341437  -0.201293  -0.008539
     5  H    0.031114  -0.165197  -0.002410  -0.201293   2.064146  -0.001299
     6  H    0.273042  -0.270144  -0.184374  -0.008539  -0.001299   2.359047
     7  H   -0.230173  -0.169957  -0.327600   0.012820  -0.182965   0.137249
     8  H   -0.091540   0.062626   0.096098  -0.005285   0.001792  -0.681060
     9  H   -0.000905   0.019135  -0.136277   0.330196   0.038292  -0.007759
              7          8          9
     1  C   -0.230173  -0.091540  -0.000905
     2  C   -0.169957   0.062626   0.019135
     3  C   -0.327600   0.096098  -0.136277
     4  O    0.012820  -0.005285   0.330196
     5  H   -0.182965   0.001792   0.038292
     6  H    0.137249  -0.681060  -0.007759
     7  H    2.731124  -0.247258  -0.001831
     8  H   -0.247258   2.413606   0.013434
     9  H   -0.001831   0.013434   0.646496
 Mulliken atomic charges:
              1
     1  C    0.669667
     2  C    1.365878
     3  C    0.771191
     4  O   -0.423794
     5  H   -0.582179
     6  H   -0.616162
     7  H   -0.721408
     8  H   -0.562413
     9  H    0.099219
 Sum of Mulliken atomic charges =   0.00000
 Mulliken charges with hydrogens summed into heavy atoms:
              1
     1  C   -0.508907
     2  C    0.644470
     3  C    0.189012
     4  O   -0.324575
 Sum of Mulliken charges with hydrogens summed into heavy atoms =   0.00000
          Atomic-Atomic Spin Densities.
              1          2          3          4          5          6
     1  C    0.655219  -0.025710  -0.065824   0.012752  -0.001148   0.051363
     2  C   -0.025710  -0.248598   0.039078   0.004987  -0.032326   0.009123
     3  C   -0.065824   0.039078   0.643667  -0.099058   0.097912  -0.003131
     4  O    0.012752   0.004987  -0.099058   0.165416  -0.000446  -0.000516
     5  H   -0.001148  -0.032326   0.097912  -0.000446  -0.100110  -0.001567
     6  H    0.051363   0.009123  -0.003131  -0.000516  -0.001567  -0.101906
     7  H   -0.001403  -0.004945  -0.014651  -0.001512  -0.005579   0.001969
     8  H    0.090505  -0.026369   0.001473   0.000198   0.000693   0.015505
     9  H    0.001126  -0.003537  -0.005958  -0.000212   0.004240  -0.000927
              7          8          9
     1  C   -0.001403   0.090505   0.001126
     2  C   -0.004945  -0.026369  -0.003537
     3  C   -0.014651   0.001473  -0.005958
     4  O   -0.001512   0.000198  -0.000212
     5  H   -0.005579   0.000693   0.004240
     6  H    0.001969   0.015505  -0.000927
     7  H    0.031611  -0.002289  -0.000301
     8  H   -0.002289  -0.117083  -0.000326
     9  H   -0.000301  -0.000326   0.005407
 Mulliken atomic spin densities:
              1
     1  C    0.716879
     2  C   -0.288297
     3  C    0.593507
     4  O    0.081610
     5  H   -0.038331
     6  H   -0.030087
     7  H    0.002901
     8  H   -0.037692
     9  H   -0.000490
 Sum of Mulliken atomic spin densities =   1.00000
 APT atomic charges:
              1
     1  C   -0.366030
     2  C    0.759556
     3  C    0.239591
     4  O   -0.398176
     5  H   -0.067957
     6  H   -0.125043
     7  H   -0.221302
     8  H   -0.066387
     9  H    0.245749
 Sum of APT charges=   0.00000
 APT Atomic charges with hydrogens summed into heavy atoms:
              1
     1  C   -0.557461
     2  C    0.538254
     3  C    0.171634
     4  O   -0.152428
     5  H    0.000000
     6  H    0.000000
     7  H    0.000000
     8  H    0.000000
     9  H    0.000000
 Sum of APT charges=   0.00000
 Electronic spatial extent (au):  <R**2>=            297.7963
 Charge=              0.0000 electrons
 Dipole moment (field-independent basis, Debye):
    X=             -0.2289    Y=              0.1803    Z=             -0.5608  Tot=              0.6320
 Quadrupole moment (field-independent basis, Debye-Ang):
   XX=            -23.7365   YY=            -27.5575   ZZ=            -24.4143
   XY=              1.2106   XZ=             -2.9114   YZ=             -1.0304
 Traceless Quadrupole moment (field-independent basis, Debye-Ang):
   XX=              1.4996   YY=             -2.3214   ZZ=              0.8218
   XY=              1.2106   XZ=             -2.9114   YZ=             -1.0304
 Octapole moment (field-independent basis, Debye-Ang**2):
  XXX=              6.3888  YYY=              0.5182  ZZZ=              8.5849  XYY=              4.7941
  XXY=              1.0647  XXZ=             -3.3870  XZZ=             -0.4350  YZZ=             -0.6432
  YYZ=              4.0035  XYZ=             -0.2287
 Hexadecapole moment (field-independent basis, Debye-Ang**3):
 XXXX=           -149.3098 YYYY=            -37.0342 ZZZZ=           -200.5530 XXXY=              0.0431
 XXXZ=            -45.6932 YYYX=             -4.2663 YYYZ=              6.9738 ZZZX=            -40.4178
 ZZZY=              2.2061 XXYY=            -34.3298 XXZZ=            -61.3818 YYZZ=            -45.4212
 XXYZ=              0.7779 YYXZ=            -15.2643 ZZXY=             -1.6089
 N-N= 1.104555686577D+02 E-N=-9.987311965758D+02  KE= 2.860622572223D+02
  Exact polarizability:   0.000   0.000   0.000   0.000   0.000   0.000
 Approx polarizability:  65.180   1.547  46.583  10.186  -5.311  92.324
                          Isotropic Fermi Contact Couplings
        Atom                 a.u.       MegaHertz       Gauss      10(-4) cm-1
     1  C(13)              0.07224      81.20645      28.97648      27.08756
     2  C(13)             -0.04320     -48.56743     -17.33007     -16.20035
     3  C(13)              0.06853      77.04420      27.49128      25.69918
     4  O(17)              0.02710     -16.42866      -5.86216      -5.48001
     5  H(1)              -0.00866     -38.68843     -13.80499     -12.90507
     6  H(1)              -0.00802     -35.84780     -12.79138     -11.95754
     7  H(1)               0.00208       9.29427       3.31643       3.10024
     8  H(1)              -0.00848     -37.88745     -13.51918     -12.63789
     9  H(1)              -0.00138      -6.18478      -2.20688      -2.06302
 --------------------------------------------------------
       Center         ----  Spin Dipole Couplings  ----
                      3XX-RR        3YY-RR        3ZZ-RR
 --------------------------------------------------------
     1   Atom       -0.310493      0.618115     -0.307622
     2   Atom        0.055218     -0.153523      0.098305
     3   Atom       -0.299231      0.583579     -0.284348
     4   Atom       -0.227890      0.422951     -0.195061
     5   Atom       -0.035107      0.000756      0.034351
     6   Atom        0.029361     -0.001365     -0.027996
     7   Atom        0.001040     -0.009014      0.007973
     8   Atom        0.006107     -0.000887     -0.005220
     9   Atom       -0.005742     -0.007857      0.013599
 --------------------------------------------------------
                        XY            XZ            YZ
 --------------------------------------------------------
     1   Atom       -0.058749     -0.000677      0.103689
     2   Atom        0.023009      0.012603     -0.034271
     3   Atom       -0.157136     -0.030371      0.159687
     4   Atom       -0.136671     -0.040485      0.174500
     5   Atom       -0.001303     -0.023258     -0.011496
     6   Atom        0.005644     -0.025923      0.001306
     7   Atom       -0.000469      0.006549     -0.001267
     8   Atom       -0.004727      0.043134      0.003132
     9   Atom        0.004188     -0.011078     -0.008577
 --------------------------------------------------------


 ---------------------------------------------------------------------------------
              Anisotropic Spin Dipole Couplings in Principal Axis System
 ---------------------------------------------------------------------------------

       Atom             a.u.   MegaHertz   Gauss  10(-4) cm-1        Axes

              Baa    -0.3229   -43.329   -15.461   -14.453 -0.5486 -0.1253  0.8266
     1 C(13)  Bbb    -0.3103   -41.641   -14.859   -13.890  0.8338 -0.0089  0.5520
              Bcc     0.6332    84.971    30.320    28.343 -0.0618  0.9921  0.1094
 
              Baa    -0.1609   -21.589    -7.703    -7.201 -0.1127  0.9843  0.1356
     2 C(13)  Bbb     0.0561     7.529     2.687     2.511  0.9741  0.1364 -0.1802
              Bcc     0.1048    14.059     5.017     4.690  0.1959 -0.1118  0.9742
 
              Baa    -0.3269   -43.866   -15.653   -14.632  0.9728  0.1349  0.1881
     3 C(13)  Bbb    -0.3124   -41.924   -14.959   -13.984 -0.1592 -0.2002  0.9667
              Bcc     0.6393    85.790    30.612    28.616 -0.1681  0.9704  0.1733
 
              Baa    -0.2571    18.601     6.637     6.205  0.9477  0.1140  0.2979
     4 O(17)  Bbb    -0.2398    17.349     6.191     5.787 -0.2541 -0.2949  0.9211
              Bcc     0.4968   -35.950   -12.828   -11.992 -0.1929  0.9487  0.2506
 
              Baa    -0.0427   -22.770    -8.125    -7.595  0.9471  0.1084  0.3021
     5 H(1)   Bbb    -0.0014    -0.728    -0.260    -0.243 -0.1735  0.9648  0.1976
              Bcc     0.0440    23.498     8.385     7.838 -0.2701 -0.2396  0.9326
 
              Baa    -0.0383   -20.416    -7.285    -6.810  0.3630 -0.0884  0.9276
     6 H(1)   Bbb    -0.0016    -0.873    -0.312    -0.291 -0.0763  0.9893  0.1241
              Bcc     0.0399    21.289     7.596     7.101  0.9287  0.1159 -0.3523
 
              Baa    -0.0091    -4.859    -1.734    -1.621 -0.0022  0.9972  0.0748
     7 H(1)   Bbb    -0.0029    -1.544    -0.551    -0.515  0.8578  0.0403 -0.5123
              Bcc     0.0120     6.403     2.285     2.136  0.5139 -0.0631  0.8555
 
              Baa    -0.0438   -23.348    -8.331    -7.788 -0.6558 -0.1267  0.7443
     8 H(1)   Bbb    -0.0002    -0.127    -0.045    -0.042 -0.0584  0.9914  0.1172
              Bcc     0.0440    23.475     8.376     7.830  0.7527 -0.0334  0.6575
 
              Baa    -0.0111    -5.933    -2.117    -1.979 -0.6396  0.7685 -0.0200
     9 H(1)   Bbb    -0.0106    -5.652    -2.017    -1.885  0.6589  0.5614  0.5007
              Bcc     0.0217    11.584     4.134     3.864 -0.3960 -0.3071  0.8654
 

 ---------------------------------------------------------------------------------

 No NMR shielding tensors so no spin-rotation constants.
 Leave Link  601 at Thu Oct 29 20:20:04 2009, MaxMem= 1258291200 cpu:       2.5
 (Enter /home/g09/l716.exe)
 Dipole        =-9.00619135D-02 7.09419349D-02-2.20642200D-01
 Polarizability= 0.00000000D+00 0.00000000D+00 0.00000000D+00
                 0.00000000D+00 0.00000000D+00 0.00000000D+00
 -------------------------------------------------------------------
 Center     Atomic                   Forces (Hartrees/Bohr)
 Number     Number              X              Y              Z
 -------------------------------------------------------------------
      1        6           0.002854515    0.000992002    0.000635492
      2        6          -0.001672403   -0.001731905    0.000876383
      3        6          -0.000419491    0.001279343    0.000594565
      4        8          -0.000678076   -0.000488000   -0.002242488
      5        1          -0.000051135    0.000324270    0.000239843
      6        1          -0.000705779    0.000488802    0.000548901
      7        1           0.000516716   -0.000198785   -0.000146587
      8        1           0.000189918   -0.000169119   -0.000139179
      9        1          -0.000034264   -0.000496608   -0.000366930
 -------------------------------------------------------------------
 Cartesian Forces:  Max     0.002854515 RMS     0.000981149
 Leave Link  716 at Thu Oct 29 20:20:04 2009, MaxMem= 1258291200 cpu:       0.3
 (Enter /home/g09/l9999.exe)

 This type of calculation cannot be archived.


 LIFE IS SO UNCERTAIN - EAT DESSERT FIRST.
 Job cpu time:  0 days  4 hours 43 minutes  8.6 seconds.
 File lengths (MBytes):  RWF=     20 Int=      0 D2E=      0 Chk=      4 Scr=      1
 Normal termination of Gaussian 09 at Thu Oct 29 20:20:04 2009.
