 Entering Gaussian System, Link 0=g09
 Input=/home/benjfitz/c3h5o-int18-ts-int9-2_opt-uccsd-avdz-vtight-p2b.com
 Output=/home/benjfitz/c3h5o-int18-ts-int9-2_opt-uccsd-avdz-vtight-p2b.log
 Initial command:
 /home/g09/l1.exe /scratch/benjfitz/Gau-5354.inp -scrdir=/scratch/benjfitz/
 Entering Link 1 = /home/g09/l1.exe PID=      5355.
  
 Copyright (c) 1988,1990,1992,1993,1995,1998,2003,2009, Gaussian, Inc.
                  All Rights Reserved.
  
 This is part of the Gaussian(R) 09 program.  It is based on
 the Gaussian(R) 03 system (copyright 2003, Gaussian, Inc.),
 the Gaussian(R) 98 system (copyright 1998, Gaussian, Inc.),
 the Gaussian(R) 94 system (copyright 1995, Gaussian, Inc.),
 the Gaussian 92(TM) system (copyright 1992, Gaussian, Inc.),
 the Gaussian 90(TM) system (copyright 1990, Gaussian, Inc.),
 the Gaussian 88(TM) system (copyright 1988, Gaussian, Inc.),
 the Gaussian 86(TM) system (copyright 1986, Carnegie Mellon
 University), and the Gaussian 82(TM) system (copyright 1983,
 Carnegie Mellon University). Gaussian is a federally registered
 trademark of Gaussian, Inc.
  
 This software contains proprietary and confidential information,
 including trade secrets, belonging to Gaussian, Inc.
  
 This software is provided under written license and may be
 used, copied, transmitted, or stored only in accord with that
 written license.
  
 The following legend is applicable only to US Government
 contracts under FAR:
  
                    RESTRICTED RIGHTS LEGEND
  
 Use, reproduction and disclosure by the US Government is
 subject to restrictions as set forth in subparagraphs (a)
 and (c) of the Commercial Computer Software - Restricted
 Rights clause in FAR 52.227-19.
  
 Gaussian, Inc.
 340 Quinnipiac St., Bldg. 40, Wallingford CT 06492
  
  
 ---------------------------------------------------------------
 Warning -- This program may not be used in any manner that
 competes with the business of Gaussian, Inc. or will provide
 assistance to any competitor of Gaussian, Inc.  The licensee
 of this program is prohibited from giving any competitor of
 Gaussian, Inc. access to this program.  By using this program,
 the user acknowledges that Gaussian, Inc. is engaged in the
 business of creating and licensing software in the field of
 computational chemistry and represents and warrants to the
 licensee that it is not a competitor of Gaussian, Inc. and that
 it will not use this program in any manner prohibited above.
 ---------------------------------------------------------------
  

 Cite this work as:
 Gaussian 09, Revision A.02,
 M. J. Frisch, G. W. Trucks, H. B. Schlegel, G. E. Scuseria, 
 M. A. Robb, J. R. Cheeseman, G. Scalmani, V. Barone, B. Mennucci, 
 G. A. Petersson, H. Nakatsuji, M. Caricato, X. Li, H. P. Hratchian, 
 A. F. Izmaylov, J. Bloino, G. Zheng, J. L. Sonnenberg, M. Hada, 
 M. Ehara, K. Toyota, R. Fukuda, J. Hasegawa, M. Ishida, T. Nakajima, 
 Y. Honda, O. Kitao, H. Nakai, T. Vreven, J. A. Montgomery, Jr., 
 J. E. Peralta, F. Ogliaro, M. Bearpark, J. J. Heyd, E. Brothers, 
 K. N. Kudin, V. N. Staroverov, R. Kobayashi, J. Normand, 
 K. Raghavachari, A. Rendell, J. C. Burant, S. S. Iyengar, J. Tomasi, 
 M. Cossi, N. Rega, J. M. Millam, M. Klene, J. E. Knox, J. B. Cross, 
 V. Bakken, C. Adamo, J. Jaramillo, R. Gomperts, R. E. Stratmann, 
 O. Yazyev, A. J. Austin, R. Cammi, C. Pomelli, J. W. Ochterski, 
 R. L. Martin, K. Morokuma, V. G. Zakrzewski, G. A. Voth, 
 P. Salvador, J. J. Dannenberg, S. Dapprich, A. D. Daniels, 
 O. Farkas, J. B. Foresman, J. V. Ortiz, J. Cioslowski, 
 and D. J. Fox, Gaussian, Inc., Wallingford CT, 2009.
 
 ******************************************
 Gaussian 09:  EM64L-G09RevA.02 11-Jun-2009
                30-Oct-2009 
 ******************************************
 %Mem=1200MW
 %NProcShared=6
 Will use up to    6 processors via shared memory.
 %RWF=/scratch/benjfitz/a,4000MW
 %NoSave
 %chk=/home/benjfitz/c3h5o-int18-ts-int9-2_opt-uccsd-avdz-vtight-p2b.chk
 ----------------------------------------------------------------------
 #P uccsd(maxcyc=100)/aug-cc-pvdz 5D 7F SCF(xqc,tight) Opt(Maxcycle=50,
 ts,vtight,rcfc,noeigentest) freq(noraman) guess(read) nosymm MaxDisk=4
 000MW
 ----------------------------------------------------------------------
 1/5=1,6=50,7=1,10=5,11=1,18=20,38=1/1,3;
 2/9=110,12=2,15=1,17=6,18=5,40=1/2;
 3/5=16,7=10,8=11,11=2,16=1,25=1,30=1,71=1,116=2/1,2,3;
 4/5=1/1;
 5/5=2,8=3,13=1,32=2,38=6/2,8;
 8/6=4,9=120000,10=1/1,4;
 9/5=7,6=100,15=1/13;
 11/28=-8,29=200,31=1,42=3/11;
 10/5=6,31=1/2;
 6/7=2,8=2,9=2,10=2/1;
 7/12=7,30=1/1,2,3,16;
 1/5=1,6=50,7=1,11=1,18=20/3(2);
 2/9=110,15=1/2;
 99//99;
 2/9=110,15=1/2;
 3/5=16,7=10,8=11,11=2,16=1,25=1,30=1,71=1,116=2/1,2,3;
 4/5=5,16=3/1;
 5/5=2,8=3,13=1,32=2,38=5/2,8;
 8/6=4,9=120000,10=1/1,4;
 9/5=7,6=100,15=1/13;
 11/28=-8,29=200,31=1,42=3/11;
 10/5=6,31=1/2;
 7/12=7,30=1/1,2,3,16;
 1/5=1,6=50,7=1,11=1,18=20/3(-9);
 2/9=110,15=1/2;
 6/7=2,8=2,9=2,10=2/1;
 99//99;
 Leave Link    1 at Fri Oct 30 10:20:59 2009, MaxMem= 1258291200 cpu:       0.5
 (Enter /home/g09/l101.exe)
 ----------------------------------------------------------------------
 cyclopropanol w/ radical at OH C, geom from opt uccsd avdz vtight p2, 
 vibs from qst2 ump2 avdz tight p
 ----------------------------------------------------------------------
 Symbolic Z-matrix:
 Charge =  0 Multiplicity = 2
 C
 H                    1    hc2
 H                    1    hc3      2    hch3
 C                    1    cc4      2    cch4     3    dih4     0
 C                    4    cc5      1    ccc5     3    dih5     0
 H                    5    hc6      4    hcc6     1    dih6     0
 H                    5    hc7      4    hcc7     1    dih7     0
 O                    4    oc8      1    occ8     3    dih8     0
 H                    8    ho9      1    hoc9     3    dih9     0
       Variables:
  hc2                   1.0971                   
  hc3                   1.09462                  
  hch3                115.09008                  
  cc4                   1.50366                  
  cch4                113.33469                  
  dih4               -148.16294                  
  cc5                   1.47169                  
  ccc5                 61.72618                  
  dih5                109.92253                  
  hc6                   1.09235                  
  hcc6                133.40887                  
  dih6                124.82516                  
  hc7                   1.33924                  
  hcc7                 54.75822                  
  dih7               -118.23888                  
  oc8                   1.38301                  
  occ8                129.33506                  
  dih8               -125.21615                  
  ho9                   0.96654                  
  hoc9                115.39413                  
  dih9                152.3415                   
 
 NAtoms=      9 NQM=      9 NQMF=      0 NMic=      0 NMicF=      0 NTot=      9.
                    Isotopes and Nuclear Properties:
 (Nuclear quadrupole moments (NQMom) in fm**2, nuclear magnetic moments (NMagM)
  in nuclear magnetons)

  Atom         1           2           3           4           5           6           7           8           9
 IAtWgt=          12           1           1          12          12           1           1          16           1
 AtmWgt=  12.0000000   1.0078250   1.0078250  12.0000000  12.0000000   1.0078250   1.0078250  15.9949146   1.0078250
 NucSpn=           0           1           1           0           0           1           1           0           1
 AtZEff=   0.0000000   0.0000000   0.0000000   0.0000000   0.0000000   0.0000000   0.0000000   0.0000000   0.0000000
 NQMom=    0.0000000   0.0000000   0.0000000   0.0000000   0.0000000   0.0000000   0.0000000   0.0000000   0.0000000
 NMagM=    0.0000000   2.7928460   2.7928460   0.0000000   0.0000000   2.7928460   2.7928460   0.0000000   2.7928460
 Leave Link  101 at Fri Oct 30 10:20:59 2009, MaxMem= 1258291200 cpu:       0.8
 (Enter /home/g09/l103.exe)

 GradGradGradGradGradGradGradGradGradGradGradGradGradGradGradGradGradGrad
 Berny optimization.
 Initialization pass.
 Cartesian force constants read from checkpoint file:
 /home/benjfitz/c3h5o-int18-ts-int9-2_opt-uccsd-avdz-vtight-p2b.chk
                           ----------------------------
                           !    Initial Parameters    !
                           ! (Angstroms and Degrees)  !
 --------------------------                            --------------------------
 ! Name  Definition              Value          Derivative Info.                !
 --------------------------------------------------------------------------------
 ! R1    R(1,2)                  1.0971         D2E/DX2 =    0.2715             !
 ! R2    R(1,3)                  1.0946         D2E/DX2 =    0.2049             !
 ! R3    R(1,4)                  1.5037         D2E/DX2 =    0.1822             !
 ! R4    R(1,5)                  1.5266         D2E/DX2 =    0.1368             !
 ! R5    R(4,5)                  1.4717         D2E/DX2 =    0.1745             !
 ! R6    R(4,7)                  1.298          D2E/DX2 =    0.0002             !
 ! R7    R(4,8)                  1.383          D2E/DX2 =    0.2109             !
 ! R8    R(5,6)                  1.0923         D2E/DX2 =    0.2303             !
 ! R9    R(5,7)                  1.3392         D2E/DX2 =    0.0298             !
 ! R10   R(8,9)                  0.9665         D2E/DX2 =    0.2424             !
 ! A1    A(2,1,3)              115.0901         D2E/DX2 =    0.036              !
 ! A2    A(2,1,4)              113.3347         D2E/DX2 =    0.0307             !
 ! A3    A(2,1,5)              113.9531         D2E/DX2 =    0.0693             !
 ! A4    A(3,1,4)              122.5812         D2E/DX2 =    0.0404             !
 ! A5    A(3,1,5)              121.8896         D2E/DX2 =    0.0891             !
 ! A6    A(1,4,7)               95.5136         D2E/DX2 =    0.0268             !
 ! A7    A(1,4,8)              129.3351         D2E/DX2 =    0.1198             !
 ! A8    A(5,4,8)              133.5986         D2E/DX2 =    0.0794             !
 ! A9    A(7,4,8)              134.699          D2E/DX2 =    0.0117             !
 ! A10   A(1,5,6)              134.568          D2E/DX2 =    0.0531             !
 ! A11   A(1,5,7)               92.7605         D2E/DX2 =    0.0368             !
 ! A12   A(4,5,6)              133.4089         D2E/DX2 =    0.0613             !
 ! A13   A(6,5,7)              131.7058         D2E/DX2 =    0.0213             !
 ! A14   A(4,8,9)              108.4047         D2E/DX2 =    0.8262             !
 ! D1    D(2,1,4,7)           -152.845          D2E/DX2 =    0.0447             !
 ! D2    D(2,1,4,8)             20.2458         D2E/DX2 =    0.0566             !
 ! D3    D(3,1,4,7)             61.693          D2E/DX2 =    0.0614             !
 ! D4    D(3,1,4,8)           -125.2161         D2E/DX2 =    0.0937             !
 ! D5    D(2,1,5,6)            -19.6305         D2E/DX2 =    0.0459             !
 ! D6    D(2,1,5,7)            149.6196         D2E/DX2 =    0.0268             !
 ! D7    D(3,1,5,6)            125.7452         D2E/DX2 =    0.0578             !
 ! D8    D(3,1,5,7)            -65.0048         D2E/DX2 =    0.0365             !
 ! D9    D(8,4,5,6)              6.031          D2E/DX2 =    0.0364             !
 ! D10   D(1,4,8,9)           -110.227          D2E/DX2 =    0.0212             !
 ! D11   D(5,4,8,9)            -23.9714         D2E/DX2 =    0.0157             !
 ! D12   D(7,4,8,9)             60.075          D2E/DX2 =    0.047              !
 --------------------------------------------------------------------------------
 Trust Radius=3.00D-01 FncErr=1.00D-07 GrdErr=1.00D-07
 Number of steps in this run=  50 maximum allowed number of steps= 100.
 Search for a saddle point of order  1.
 GradGradGradGradGradGradGradGradGradGradGradGradGradGradGradGradGradGrad

 Leave Link  103 at Fri Oct 30 10:20:59 2009, MaxMem= 1258291200 cpu:       0.2
 (Enter /home/g09/l202.exe)
                          Input orientation:                          
 ---------------------------------------------------------------------
 Center     Atomic      Atomic             Coordinates (Angstroms)
 Number     Number       Type             X           Y           Z
 ---------------------------------------------------------------------
      1          6           0        0.000000    0.000000    0.000000
      2          1           0        0.000000    0.000000    1.097102
      3          1           0        0.991335    0.000000   -0.464166
      4          6           0       -1.172948    0.728310   -0.595601
      5          6           0       -1.180676   -0.743167   -0.619769
      6          1           0       -1.886124   -1.496125   -0.261131
      7          1           0       -1.194439    0.047553   -1.700576
      8          8           0       -1.999229    1.677084   -0.021319
      9          1           0       -2.872199    1.283046    0.108546
 ---------------------------------------------------------------------
                    Distance matrix (angstroms):
                    1          2          3          4          5
     1  C    0.000000
     2  H    1.097102   0.000000
     3  H    1.094621   1.849406   0.000000
     4  C    1.503656   2.184373   2.287320   0.000000
     5  C    1.526567   2.212225   2.300900   1.471695   0.000000
     6  H    2.421579   2.764173   3.249520   2.359788   1.092348
     7  H    2.078678   3.042359   2.511688   1.298022   1.339242
     8  O    2.609594   2.839083   3.457195   1.383008   2.624078
     9  H    3.147621   3.297420   4.111095   1.921200   2.738107
                    6          7          8          9
     6  H    0.000000
     7  H    2.221119   0.000000
     8  O    3.184267   2.474462   0.000000
     9  H    2.972003   2.759392   0.966544   0.000000
 Symmetry turned off by external request.
 Stoichiometry    C3H5O(2)
 Framework group  C1[X(C3H5O)]
 Deg. of freedom    21
 Full point group                 C1      NOp   1
 Rotational constants (GHZ):     18.9534192      6.7973224      5.6490491
 Leave Link  202 at Fri Oct 30 10:20:59 2009, MaxMem= 1258291200 cpu:       0.0
 (Enter /home/g09/l301.exe)
 Standard basis: Aug-CC-pVDZ (5D, 7F)
 Ernie: Thresh=  0.10000D-02 Tol=  0.10000D-05 Strict=F.
 Ernie:  8 primitive shells out of 135 were deleted.
 Integral buffers will be    131072 words long.
 Raffenetti 2 integral format.
 Two-electron integral symmetry is turned off.
   137 basis functions,   227 primitive gaussians,   145 cartesian basis functions
    16 alpha electrons       15 beta electrons
       nuclear repulsion energy       115.1107765144 Hartrees.
 IExCor=    0 DFT=F Ex=HF Corr=None ExCW=0 ScaHFX=  1.000000
 ScaDFX=  1.000000  1.000000  1.000000  1.000000 ScalE2=  1.000000  1.000000
 IRadAn=      0 IRanWt=     -1 IRanGd=            0 ICorTp=0
 NAtoms=    9 NActive=    9 NUniq=    9 SFac= 7.50D-01 NAtFMM=   80 NAOKFM=F Big=F
 Leave Link  301 at Fri Oct 30 10:20:59 2009, MaxMem= 1258291200 cpu:       0.6
 (Enter /home/g09/l302.exe)
 NPDir=0 NMtPBC=     1 NCelOv=     1 NCel=       1 NClECP=     1 NCelD=      1
         NCelK=      1 NCelE2=     1 NClLst=     1 CellRange=     0.0.
 One-electron integrals computed using PRISM.
 NBasis=   137 RedAO= T  NBF=   137
 NBsUse=   137 1.00D-06 NBFU=   137
 Leave Link  302 at Fri Oct 30 10:20:59 2009, MaxMem= 1258291200 cpu:       1.3
 (Enter /home/g09/l303.exe)
 DipDrv:  MaxL=1.
 Leave Link  303 at Fri Oct 30 10:21:00 2009, MaxMem= 1258291200 cpu:       0.5
 (Enter /home/g09/l401.exe)
 Initial guess read from the checkpoint file:  /home/benjfitz/c3h5o-int18-ts-int9
 -2_opt-uccsd-avdz-vtight-p2b.chk
 B after Tr=     0.127325    0.322307    0.184121
         Rot=    0.919535    0.148010   -0.206599    0.299775 Ang=  46.28 deg.
 Guess basis will be translated and rotated to current coordinates.
 Initial guess <Sx>= 0.0000 <Sy>= 0.0000 <Sz>= 0.5000 <S**2>= 0.8004 S= 0.5249
 Leave Link  401 at Fri Oct 30 10:21:00 2009, MaxMem= 1258291200 cpu:       1.6
 (Enter /home/g09/l502.exe)
 UHF open shell SCF:
 Requested convergence on RMS density matrix=1.00D-08 within  64 cycles.
 Requested convergence on MAX density matrix=1.00D-06.
 Requested convergence on             energy=1.00D-06.
 No special actions if energy rises.
 Using DIIS extrapolation, IDIIS=  1040.
 Two-electron integral symmetry not used.
 Keep R1 and R2 ints in memory in canonical form, NReq=113679197.
 IEnd=       70371 IEndB=       70371 NGot=  1258291200 MDV=  1146193386
 LenX=  1146193386 LenY=  1146171920
 Symmetry not used in FoFDir.
 MinBra= 0 MaxBra= 2 Meth= 1.
 IRaf=       0 NMat=   1 IRICut=       1 DoRegI=T DoRafI=F ISym2E= 0 JSym2E=0.

 Cycle   1  Pass 1  IDiag  1:
 E= -191.196316883859    
 DIIS: error= 4.98D-04 at cycle   1 NSaved=   1.
 NSaved= 1 IEnMin= 1 EnMin= -191.196316883859     IErMin= 1 ErrMin= 4.98D-04
 ErrMax= 4.98D-04 EMaxC= 1.00D-01 BMatC= 8.40D-04 BMatP= 8.40D-04
 IDIUse=3 WtCom= 9.95D-01 WtEn= 4.98D-03
 Coeff-Com:  0.100D+01
 Coeff-En:   0.100D+01
 Coeff:      0.100D+01
 Gap=     0.343 Goal=   None    Shift=    0.000
 Gap=     0.394 Goal=   None    Shift=    0.000
 RMSDP=3.05D-04 MaxDP=8.87D-03              OVMax= 4.69D-03

 Cycle   2  Pass 1  IDiag  1:
 E= -191.196577032877     Delta-E=       -0.000260149018 Rises=F Damp=F
 DIIS: error= 1.54D-04 at cycle   2 NSaved=   2.
 NSaved= 2 IEnMin= 2 EnMin= -191.196577032877     IErMin= 2 ErrMin= 1.54D-04
 ErrMax= 1.54D-04 EMaxC= 1.00D-01 BMatC= 4.89D-05 BMatP= 8.40D-04
 IDIUse=3 WtCom= 9.98D-01 WtEn= 1.54D-03
 Coeff-Com: -0.196D+00 0.120D+01
 Coeff-En:   0.000D+00 0.100D+01
 Coeff:     -0.196D+00 0.120D+01
 Gap=     0.344 Goal=   None    Shift=    0.000
 Gap=     0.394 Goal=   None    Shift=    0.000
 RMSDP=8.68D-05 MaxDP=1.88D-03 DE=-2.60D-04 OVMax= 2.88D-03

 Cycle   3  Pass 1  IDiag  1:
 E= -191.196604886970     Delta-E=       -0.000027854093 Rises=F Damp=F
 DIIS: error= 7.58D-05 at cycle   3 NSaved=   3.
 NSaved= 3 IEnMin= 3 EnMin= -191.196604886970     IErMin= 3 ErrMin= 7.58D-05
 ErrMax= 7.58D-05 EMaxC= 1.00D-01 BMatC= 6.27D-06 BMatP= 4.89D-05
 IDIUse=1 WtCom= 1.00D+00 WtEn= 0.00D+00
 Coeff-Com: -0.474D-01 0.112D+00 0.936D+00
 Coeff:     -0.474D-01 0.112D+00 0.936D+00
 Gap=     0.343 Goal=   None    Shift=    0.000
 Gap=     0.394 Goal=   None    Shift=    0.000
 RMSDP=2.81D-05 MaxDP=9.10D-04 DE=-2.79D-05 OVMax= 9.13D-04

 Cycle   4  Pass 1  IDiag  1:
 E= -191.196608574840     Delta-E=       -0.000003687870 Rises=F Damp=F
 DIIS: error= 4.05D-05 at cycle   4 NSaved=   4.
 NSaved= 4 IEnMin= 4 EnMin= -191.196608574840     IErMin= 4 ErrMin= 4.05D-05
 ErrMax= 4.05D-05 EMaxC= 1.00D-01 BMatC= 1.73D-06 BMatP= 6.27D-06
 IDIUse=1 WtCom= 1.00D+00 WtEn= 0.00D+00
 Coeff-Com:  0.327D-01-0.230D+00 0.112D+00 0.109D+01
 Coeff:      0.327D-01-0.230D+00 0.112D+00 0.109D+01
 Gap=     0.343 Goal=   None    Shift=    0.000
 Gap=     0.394 Goal=   None    Shift=    0.000
 RMSDP=2.14D-05 MaxDP=6.67D-04 DE=-3.69D-06 OVMax= 7.65D-04

 Cycle   5  Pass 1  IDiag  1:
 E= -191.196610064702     Delta-E=       -0.000001489861 Rises=F Damp=F
 DIIS: error= 2.45D-05 at cycle   5 NSaved=   5.
 NSaved= 5 IEnMin= 5 EnMin= -191.196610064702     IErMin= 5 ErrMin= 2.45D-05
 ErrMax= 2.45D-05 EMaxC= 1.00D-01 BMatC= 3.23D-07 BMatP= 1.73D-06
 IDIUse=1 WtCom= 1.00D+00 WtEn= 0.00D+00
 Coeff-Com:  0.452D-02-0.834D-03-0.147D+00-0.898D-01 0.123D+01
 Coeff:      0.452D-02-0.834D-03-0.147D+00-0.898D-01 0.123D+01
 Gap=     0.343 Goal=   None    Shift=    0.000
 Gap=     0.394 Goal=   None    Shift=    0.000
 RMSDP=1.23D-05 MaxDP=4.73D-04 DE=-1.49D-06 OVMax= 5.40D-04

 Cycle   6  Pass 1  IDiag  1:
 E= -191.196610479024     Delta-E=       -0.000000414322 Rises=F Damp=F
 DIIS: error= 1.32D-05 at cycle   6 NSaved=   6.
 NSaved= 6 IEnMin= 6 EnMin= -191.196610479024     IErMin= 6 ErrMin= 1.32D-05
 ErrMax= 1.32D-05 EMaxC= 1.00D-01 BMatC= 8.97D-08 BMatP= 3.23D-07
 IDIUse=1 WtCom= 1.00D+00 WtEn= 0.00D+00
 Coeff-Com: -0.936D-02 0.620D-01-0.766D-02-0.270D+00-0.219D+00 0.144D+01
 Coeff:     -0.936D-02 0.620D-01-0.766D-02-0.270D+00-0.219D+00 0.144D+01
 Gap=     0.343 Goal=   None    Shift=    0.000
 Gap=     0.394 Goal=   None    Shift=    0.000
 RMSDP=9.03D-06 MaxDP=3.66D-04 DE=-4.14D-07 OVMax= 4.03D-04

 Cycle   7  Pass 1  IDiag  1:
 E= -191.196610630625     Delta-E=       -0.000000151602 Rises=F Damp=F
 DIIS: error= 7.24D-06 at cycle   7 NSaved=   7.
 NSaved= 7 IEnMin= 7 EnMin= -191.196610630625     IErMin= 7 ErrMin= 7.24D-06
 ErrMax= 7.24D-06 EMaxC= 1.00D-01 BMatC= 1.98D-08 BMatP= 8.97D-08
 IDIUse=1 WtCom= 1.00D+00 WtEn= 0.00D+00
 Coeff-Com: -0.478D-03-0.166D-02 0.265D-01 0.237D-01-0.218D+00-0.436D-01
 Coeff-Com:  0.121D+01
 Coeff:     -0.478D-03-0.166D-02 0.265D-01 0.237D-01-0.218D+00-0.436D-01
 Coeff:      0.121D+01
 Gap=     0.343 Goal=   None    Shift=    0.000
 Gap=     0.394 Goal=   None    Shift=    0.000
 RMSDP=3.86D-06 MaxDP=1.62D-04 DE=-1.52D-07 OVMax= 1.73D-04

 Cycle   8  Pass 1  IDiag  1:
 E= -191.196610662144     Delta-E=       -0.000000031518 Rises=F Damp=F
 DIIS: error= 3.03D-06 at cycle   8 NSaved=   8.
 NSaved= 8 IEnMin= 8 EnMin= -191.196610662144     IErMin= 8 ErrMin= 3.03D-06
 ErrMax= 3.03D-06 EMaxC= 1.00D-01 BMatC= 6.28D-09 BMatP= 1.98D-08
 IDIUse=1 WtCom= 1.00D+00 WtEn= 0.00D+00
 Coeff-Com:  0.225D-02-0.159D-01 0.631D-02 0.674D-01 0.318D-01-0.373D+00
 Coeff-Com:  0.103D+00 0.118D+01
 Coeff:      0.225D-02-0.159D-01 0.631D-02 0.674D-01 0.318D-01-0.373D+00
 Coeff:      0.103D+00 0.118D+01
 Gap=     0.343 Goal=   None    Shift=    0.000
 Gap=     0.394 Goal=   None    Shift=    0.000
 RMSDP=2.03D-06 MaxDP=7.62D-05 DE=-3.15D-08 OVMax= 1.17D-04

 Cycle   9  Pass 1  IDiag  1:
 E= -191.196610673103     Delta-E=       -0.000000010960 Rises=F Damp=F
 DIIS: error= 1.93D-06 at cycle   9 NSaved=   9.
 NSaved= 9 IEnMin= 9 EnMin= -191.196610673103     IErMin= 9 ErrMin= 1.93D-06
 ErrMax= 1.93D-06 EMaxC= 1.00D-01 BMatC= 2.29D-09 BMatP= 6.28D-09
 IDIUse=1 WtCom= 1.00D+00 WtEn= 0.00D+00
 Coeff-Com: -0.126D-02 0.104D-01-0.976D-02-0.543D-01 0.434D-01 0.282D+00
 Coeff-Com: -0.519D+00-0.657D+00 0.190D+01
 Coeff:     -0.126D-02 0.104D-01-0.976D-02-0.543D-01 0.434D-01 0.282D+00
 Coeff:     -0.519D+00-0.657D+00 0.190D+01
 Gap=     0.343 Goal=   None    Shift=    0.000
 Gap=     0.394 Goal=   None    Shift=    0.000
 RMSDP=1.44D-06 MaxDP=3.96D-05 DE=-1.10D-08 OVMax= 1.07D-04

 Cycle  10  Pass 1  IDiag  1:
 E= -191.196610678399     Delta-E=       -0.000000005296 Rises=F Damp=F
 DIIS: error= 7.79D-07 at cycle  10 NSaved=  10.
 NSaved=10 IEnMin=10 EnMin= -191.196610678399     IErMin=10 ErrMin= 7.79D-07
 ErrMax= 7.79D-07 EMaxC= 1.00D-01 BMatC= 5.06D-10 BMatP= 2.29D-09
 IDIUse=1 WtCom= 1.00D+00 WtEn= 0.00D+00
 Coeff-Com: -0.185D-03 0.579D-03 0.282D-02-0.679D-03-0.318D-01 0.122D-01
 Coeff-Com:  0.158D+00-0.279D-01-0.846D+00 0.173D+01
 Coeff:     -0.185D-03 0.579D-03 0.282D-02-0.679D-03-0.318D-01 0.122D-01
 Coeff:      0.158D+00-0.279D-01-0.846D+00 0.173D+01
 Gap=     0.343 Goal=   None    Shift=    0.000
 Gap=     0.394 Goal=   None    Shift=    0.000
 RMSDP=7.94D-07 MaxDP=1.85D-05 DE=-5.30D-09 OVMax= 6.20D-05

 Cycle  11  Pass 1  IDiag  1:
 E= -191.196610679651     Delta-E=       -0.000000001252 Rises=F Damp=F
 DIIS: error= 2.65D-07 at cycle  11 NSaved=  11.
 NSaved=11 IEnMin=11 EnMin= -191.196610679651     IErMin=11 ErrMin= 2.65D-07
 ErrMax= 2.65D-07 EMaxC= 1.00D-01 BMatC= 8.30D-11 BMatP= 5.06D-10
 IDIUse=1 WtCom= 1.00D+00 WtEn= 0.00D+00
 Coeff-Com:  0.237D-03-0.204D-02 0.228D-02 0.107D-01-0.116D-01-0.544D-01
 Coeff-Com:  0.109D+00 0.150D+00-0.467D+00 0.120D+00 0.114D+01
 Coeff:      0.237D-03-0.204D-02 0.228D-02 0.107D-01-0.116D-01-0.544D-01
 Coeff:      0.109D+00 0.150D+00-0.467D+00 0.120D+00 0.114D+01
 Gap=     0.343 Goal=   None    Shift=    0.000
 Gap=     0.394 Goal=   None    Shift=    0.000
 RMSDP=2.65D-07 MaxDP=5.59D-06 DE=-1.25D-09 OVMax= 1.87D-05

 Cycle  12  Pass 1  IDiag  1:
 E= -191.196610679788     Delta-E=       -0.000000000137 Rises=F Damp=F
 DIIS: error= 1.47D-07 at cycle  12 NSaved=  12.
 NSaved=12 IEnMin=12 EnMin= -191.196610679788     IErMin=12 ErrMin= 1.47D-07
 ErrMax= 1.47D-07 EMaxC= 1.00D-01 BMatC= 1.43D-11 BMatP= 8.30D-11
 IDIUse=1 WtCom= 1.00D+00 WtEn= 0.00D+00
 Coeff-Com:  0.618D-05 0.180D-03-0.860D-03-0.166D-02 0.885D-02 0.592D-02
 Coeff-Com: -0.533D-01-0.118D-01 0.245D+00-0.358D+00-0.220D+00 0.139D+01
 Coeff:      0.618D-05 0.180D-03-0.860D-03-0.166D-02 0.885D-02 0.592D-02
 Coeff:     -0.533D-01-0.118D-01 0.245D+00-0.358D+00-0.220D+00 0.139D+01
 Gap=     0.343 Goal=   None    Shift=    0.000
 Gap=     0.394 Goal=   None    Shift=    0.000
 RMSDP=9.17D-08 MaxDP=2.23D-06 DE=-1.37D-10 OVMax= 5.79D-06

 Cycle  13  Pass 1  IDiag  1:
 E= -191.196610679807     Delta-E=       -0.000000000019 Rises=F Damp=F
 DIIS: error= 5.97D-08 at cycle  13 NSaved=  13.
 NSaved=13 IEnMin=13 EnMin= -191.196610679807     IErMin=13 ErrMin= 5.97D-08
 ErrMax= 5.97D-08 EMaxC= 1.00D-01 BMatC= 2.95D-12 BMatP= 1.43D-11
 IDIUse=1 WtCom= 1.00D+00 WtEn= 0.00D+00
 Coeff-Com: -0.354D-04 0.187D-03 0.141D-03-0.678D-03-0.313D-02 0.482D-02
 Coeff-Com:  0.132D-01-0.143D-01-0.720D-01 0.193D+00-0.649D-01-0.793D+00
 Coeff-Com:  0.174D+01
 Coeff:     -0.354D-04 0.187D-03 0.141D-03-0.678D-03-0.313D-02 0.482D-02
 Coeff:      0.132D-01-0.143D-01-0.720D-01 0.193D+00-0.649D-01-0.793D+00
 Coeff:      0.174D+01
 Gap=     0.343 Goal=   None    Shift=    0.000
 Gap=     0.394 Goal=   None    Shift=    0.000
 RMSDP=3.91D-08 MaxDP=9.82D-07 DE=-1.90D-11 OVMax= 2.02D-06

 Cycle  14  Pass 1  IDiag  1:
 E= -191.196610679812     Delta-E=       -0.000000000006 Rises=F Damp=F
 DIIS: error= 2.47D-08 at cycle  14 NSaved=  14.
 NSaved=14 IEnMin=14 EnMin= -191.196610679812     IErMin=14 ErrMin= 2.47D-08
 ErrMax= 2.47D-08 EMaxC= 1.00D-01 BMatC= 5.83D-13 BMatP= 2.95D-12
 IDIUse=1 WtCom= 1.00D+00 WtEn= 0.00D+00
 Coeff-Com:  0.176D-04-0.129D-03 0.559D-04 0.684D-03 0.244D-03-0.408D-02
 Coeff-Com:  0.273D-02 0.108D-01-0.576D-02-0.412D-01 0.809D-01 0.177D+00
 Coeff-Com: -0.101D+01 0.179D+01
 Coeff:      0.176D-04-0.129D-03 0.559D-04 0.684D-03 0.244D-03-0.408D-02
 Coeff:      0.273D-02 0.108D-01-0.576D-02-0.412D-01 0.809D-01 0.177D+00
 Coeff:     -0.101D+01 0.179D+01
 Gap=     0.343 Goal=   None    Shift=    0.000
 Gap=     0.394 Goal=   None    Shift=    0.000
 RMSDP=2.01D-08 MaxDP=4.53D-07 DE=-5.57D-12 OVMax= 7.57D-07

 Cycle  15  Pass 1  IDiag  1:
 E= -191.196610679813     Delta-E=       -0.000000000001 Rises=F Damp=F
 DIIS: error= 1.01D-08 at cycle  15 NSaved=  15.
 NSaved=15 IEnMin=15 EnMin= -191.196610679813     IErMin=15 ErrMin= 1.01D-08
 ErrMax= 1.01D-08 EMaxC= 1.00D-01 BMatC= 8.90D-14 BMatP= 5.83D-13
 IDIUse=1 WtCom= 1.00D+00 WtEn= 0.00D+00
 Coeff-Com: -0.153D-05 0.230D-04-0.512D-04-0.167D-03 0.394D-03 0.816D-03
 Coeff-Com: -0.297D-02-0.213D-02 0.128D-01-0.119D-01-0.225D-01 0.394D-01
 Coeff-Com:  0.186D+00-0.817D+00 0.162D+01
 Coeff:     -0.153D-05 0.230D-04-0.512D-04-0.167D-03 0.394D-03 0.816D-03
 Coeff:     -0.297D-02-0.213D-02 0.128D-01-0.119D-01-0.225D-01 0.394D-01
 Coeff:      0.186D+00-0.817D+00 0.162D+01
 Gap=     0.343 Goal=   None    Shift=    0.000
 Gap=     0.394 Goal=   None    Shift=    0.000
 RMSDP=7.69D-09 MaxDP=1.71D-07 DE=-1.25D-12 OVMax= 3.05D-07

 SCF Done:  E(UHF) =  -191.196610680     A.U. after   15 cycles
             Convg  =    0.7694D-08             -V/T =  2.0019
 <Sx>= 0.0000 <Sy>= 0.0000 <Sz>= 0.5000 <S**2>= 0.8020 S= 0.5257
 <L.S>= 0.000000000000E+00
 KE= 1.908317732250D+02 PE=-6.780900531813D+02 EE= 1.809508927620D+02
 Annihilation of the first spin contaminant:
 S**2 before annihilation     0.8020,   after     0.7505
 Leave Link  502 at Fri Oct 30 10:21:10 2009, MaxMem= 1258291200 cpu:      59.0
 (Enter /home/g09/l508.exe)
 QCSCF skips out because SCF is already converged.
 Leave Link  508 at Fri Oct 30 10:21:10 2009, MaxMem= 1258291200 cpu:       0.0
 (Enter /home/g09/l801.exe)
 Windowed orbitals will be sorted by symmetry type.
 ExpMin= 2.97D-02 ExpMax= 1.17D+04 ExpMxC= 4.01D+02 IAcc=3 IRadAn=         5 AccDes= 0.00D+00
 HarFok:  IExCor=  205 AccDes= 0.00D+00 IRadAn=         5 IDoV=-2
 ScaDFX=  1.000000  1.000000  1.000000  1.000000
 Largest valence mixing into a core orbital is  1.13D-04
 Largest core mixing into a valence orbital is  3.48D-05
 Largest valence mixing into a core orbital is  1.28D-04
 Largest core mixing into a valence orbital is  3.73D-05
 Range of M.O.s used for correlation:     5   137
 NBasis=   137 NAE=    16 NBE=    15 NFC=     4 NFV=     0
 NROrb=    133 NOA=    12 NOB=    11 NVA=   121 NVB=   122

 **** Warning!!: The largest alpha MO coefficient is  0.31264217D+02


 **** Warning!!: The largest beta MO coefficient is  0.29574672D+02

 Leave Link  801 at Fri Oct 30 10:21:10 2009, MaxMem= 1258291200 cpu:       1.1
 (Enter /home/g09/l804.exe)
 Open-shell transformation, MDV=  1258291200 ITran=4 ISComp=1.
 Semi-Direct transformation.
 ModeAB=           2 MOrb=            12 LenV=    1257614019
 LASXX=     13227027 LTotXX=    13227027 LenRXX=    13227027
 LTotAB=    13633830 MaxLAS=    16893660 LenRXY=    16893660
 NonZer=    26454054 LenScr=    40441856 LnRSAI=           0
 LnScr1=           0 LExtra=     1647389 Total=     72209932
 MaxDsk=  4194304000 SrtSym=           F ITran=            4
 DoSDTr:  NPSUse=  6
 JobTyp=1 Pass  1:  I=   1 to  12.
 (rs|ai) integrals will be sorted in core.
 Complete sort for first half transformation.
 First half transformation complete.
 Begin second half transformation for I=  10.
 Begin second half transformation for I=  10.
 Complete sort for second half transformation.
 Second half transformation complete.
 ModeAB=           2 MOrb=            11 LenV=    1257614019
 LASXX=     12187571 LTotXX=    12187571 LenRXX=    15485855
 LTotAB=    10392448 MaxLAS=    15485855 LenRXY=    10392448
 NonZer=    24375142 LenScr=    37330944 LnRSAI=           0
 LnScr1=           0 LExtra=    31768076 Total=     94977323
 MaxDsk=  4194304000 SrtSym=           F ITran=            4
 DoSDTr:  NPSUse=  6
 JobTyp=2 Pass  1:  I=   1 to  11.
 (rs|ai) integrals will be sorted in core.
 Complete sort for first half transformation.
 First half transformation complete.
 Begin second half transformation for I=  10.
 Begin second half transformation for I=  10.
 Complete sort for second half transformation.
 Second half transformation complete.
 Spin components of T(2) and E(2):
     alpha-alpha T2 =       0.2956018746D-01 E2=     -0.8564090926D-01
     alpha-beta  T2 =       0.1521650656D+00 E2=     -0.4602449833D+00
     beta-beta   T2 =       0.2612751477D-01 E2=     -0.7488592228D-01
 ANorm=    0.1099023552D+01
 E2 =    -0.6207718148D+00 EUMP2 =    -0.19181738249466D+03
 (S**2,0)=  0.80202D+00           (S**2,1)=  0.77568D+00
 E(PUHF)=      -0.19120384146D+03        E(PMP2)=      -0.19182279362D+03
 Leave Link  804 at Fri Oct 30 10:21:34 2009, MaxMem= 1258291200 cpu:     143.8
 (Enter /home/g09/l913.exe)
 CIDS:  MDV=  1258291200.
 Frozen-core window:  NFC=   4 NFV=   0.
 IFCWin=0 IBDFC=1 NFBD=     0     0 NFCmp=     0     0 NFFFC=     0     0
 Using original routines for 1st iteration, S=T.
 Using DD4UQ or CC4UQ for 2nd and later iterations.
 R2 and R3 integrals will be kept in memory, NReq=   113608805.
 Symmetry not used in FoFDir.
 MinBra= 0 MaxBra= 2 Meth= 1.
 IRaf=       0 NMat=   1 IRICut=       1 DoRegI=T DoRafI=F ISym2E= 0 JSym2E=0.
 Coupled Cluster theory with single and double substitutions
 ===========================================================
 Iterations= 100 Convergence= 0.100D-07
 Iteration Nr.   1
 **********************
 DD1Dir will call FoFMem   1 times, MxPair=       386
 NAB=   132 NAA=    66 NBB=    55.
 E(PMP3)=      -0.19184637454D+03
 MP4(R+Q)=  0.13288369D-01
 Maximum subspace dimension=  5
 Norm of the A-vectors is  1.0916452D+00 conv= 1.00D-06.
 RLE energy=       -0.6332345355
 E3=       -0.25589801D-01        EUMP3=      -0.19184297230D+03
 E4(DQ)=   -0.14895512D-02        UMP4(DQ)=   -0.19184446185D+03
 E4(SDQ)=  -0.82019764D-02        UMP4(SDQ)=  -0.19185117427D+03
 VARIATIONAL ENERGIES WITH THE FIRST-ORDER WAVEFUNCTION:
 DE(Corr)= -0.63298927     E(Corr)=     -191.82959995    
 NORM(A)=   0.11062099D+01
 Iteration Nr.   2
 **********************
 DD1Dir will call FoFMem   1 times, MxPair=       386
 NAB=   132 NAA=    66 NBB=    55.
 Norm of the A-vectors is  3.9996055D-01 conv= 1.00D-06.
 RLE energy=       -0.6534071903
 DE(Corr)= -0.65047783     E(CORR)=     -191.84708851     Delta=-1.75D-02
 NORM(A)=   0.11161955D+01
 Iteration Nr.   3
 **********************
 DD1Dir will call FoFMem   1 times, MxPair=       386
 NAB=   132 NAA=    66 NBB=    55.
 Norm of the A-vectors is  1.3965081D-01 conv= 1.00D-06.
 RLE energy=       -0.6549630923
 DE(Corr)= -0.65299018     E(CORR)=     -191.84960086     Delta=-2.51D-03
 NORM(A)=   0.11194669D+01
 Iteration Nr.   4
 **********************
 DD1Dir will call FoFMem   1 times, MxPair=       386
 NAB=   132 NAA=    66 NBB=    55.
 Norm of the A-vectors is  6.8066361D-02 conv= 1.00D-06.
 RLE energy=       -0.6553630455
 DE(Corr)= -0.65504332     E(CORR)=     -191.85165400     Delta=-2.05D-03
 NORM(A)=   0.11208970D+01
 Iteration Nr.   5
 **********************
 DD1Dir will call FoFMem   1 times, MxPair=       386
 NAB=   132 NAA=    66 NBB=    55.
 Norm of the A-vectors is  2.5593771D-02 conv= 1.00D-06.
 RLE energy=       -0.6555415755
 DE(Corr)= -0.65542227     E(CORR)=     -191.85203295     Delta=-3.79D-04
 NORM(A)=   0.11215293D+01
 Iteration Nr.   6
 **********************
 DD1Dir will call FoFMem   1 times, MxPair=       386
 NAB=   132 NAA=    66 NBB=    55.
 Norm of the A-vectors is  1.2967753D-02 conv= 1.00D-06.
 RLE energy=       -0.6554754023
 DE(Corr)= -0.65550533     E(CORR)=     -191.85211601     Delta=-8.31D-05
 NORM(A)=   0.11216192D+01
 Iteration Nr.   7
 **********************
 DD1Dir will call FoFMem   1 times, MxPair=       386
 NAB=   132 NAA=    66 NBB=    55.
 Norm of the A-vectors is  4.9162089D-03 conv= 1.00D-06.
 RLE energy=       -0.6554949529
 DE(Corr)= -0.65551274     E(CORR)=     -191.85212342     Delta=-7.41D-06
 NORM(A)=   0.11216541D+01
 Iteration Nr.   8
 **********************
 DD1Dir will call FoFMem   1 times, MxPair=       386
 NAB=   132 NAA=    66 NBB=    55.
 Norm of the A-vectors is  2.4068602D-03 conv= 1.00D-06.
 RLE energy=       -0.6555010701
 DE(Corr)= -0.65550534     E(CORR)=     -191.85211602     Delta= 7.40D-06
 NORM(A)=   0.11216663D+01
 Iteration Nr.   9
 **********************
 DD1Dir will call FoFMem   1 times, MxPair=       386
 NAB=   132 NAA=    66 NBB=    55.
 Norm of the A-vectors is  1.3160072D-03 conv= 1.00D-06.
 RLE energy=       -0.6555096805
 DE(Corr)= -0.65550983     E(CORR)=     -191.85212051     Delta=-4.49D-06
 NORM(A)=   0.11216711D+01
 Iteration Nr.  10
 **********************
 DD1Dir will call FoFMem   1 times, MxPair=       386
 NAB=   132 NAA=    66 NBB=    55.
 Norm of the A-vectors is  7.0718701D-04 conv= 1.00D-06.
 RLE energy=       -0.6555107190
 DE(Corr)= -0.65550962     E(CORR)=     -191.85212030     Delta= 2.08D-07
 NORM(A)=   0.11216753D+01
 Iteration Nr.  11
 **********************
 DD1Dir will call FoFMem   1 times, MxPair=       386
 NAB=   132 NAA=    66 NBB=    55.
 Norm of the A-vectors is  3.6823364D-04 conv= 1.00D-06.
 RLE energy=       -0.6555121876
 DE(Corr)= -0.65551172     E(CORR)=     -191.85212240     Delta=-2.10D-06
 NORM(A)=   0.11216779D+01
 Iteration Nr.  12
 **********************
 DD1Dir will call FoFMem   1 times, MxPair=       386
 NAB=   132 NAA=    66 NBB=    55.
 Norm of the A-vectors is  1.7893807D-04 conv= 1.00D-06.
 RLE energy=       -0.6555128133
 DE(Corr)= -0.65551233     E(CORR)=     -191.85212301     Delta=-6.11D-07
 NORM(A)=   0.11216800D+01
 Iteration Nr.  13
 **********************
 DD1Dir will call FoFMem   1 times, MxPair=       386
 NAB=   132 NAA=    66 NBB=    55.
 Norm of the A-vectors is  1.0559965D-04 conv= 1.00D-06.
 RLE energy=       -0.6555129629
 DE(Corr)= -0.65551278     E(CORR)=     -191.85212346     Delta=-4.53D-07
 NORM(A)=   0.11216813D+01
 Iteration Nr.  14
 **********************
 DD1Dir will call FoFMem   1 times, MxPair=       386
 NAB=   132 NAA=    66 NBB=    55.
 Norm of the A-vectors is  5.7603047D-05 conv= 1.00D-06.
 RLE energy=       -0.6555132110
 DE(Corr)= -0.65551308     E(CORR)=     -191.85212376     Delta=-2.94D-07
 NORM(A)=   0.11216821D+01
 Iteration Nr.  15
 **********************
 DD1Dir will call FoFMem   1 times, MxPair=       386
 NAB=   132 NAA=    66 NBB=    55.
 Norm of the A-vectors is  3.4513606D-05 conv= 1.00D-06.
 RLE energy=       -0.6555132244
 DE(Corr)= -0.65551318     E(CORR)=     -191.85212386     Delta=-9.92D-08
 NORM(A)=   0.11216825D+01
 Iteration Nr.  16
 **********************
 DD1Dir will call FoFMem   1 times, MxPair=       386
 NAB=   132 NAA=    66 NBB=    55.
 Norm of the A-vectors is  2.0970335D-05 conv= 1.00D-06.
 RLE energy=       -0.6555132640
 DE(Corr)= -0.65551325     E(CORR)=     -191.85212393     Delta=-7.87D-08
 NORM(A)=   0.11216826D+01
 Iteration Nr.  17
 **********************
 DD1Dir will call FoFMem   1 times, MxPair=       386
 NAB=   132 NAA=    66 NBB=    55.
 Norm of the A-vectors is  1.1557036D-05 conv= 1.00D-06.
 RLE energy=       -0.6555132571
 DE(Corr)= -0.65551325     E(CORR)=     -191.85212393     Delta=-2.74D-11
 NORM(A)=   0.11216826D+01
 Iteration Nr.  18
 **********************
 DD1Dir will call FoFMem   1 times, MxPair=       386
 NAB=   132 NAA=    66 NBB=    55.
 Norm of the A-vectors is  6.7965693D-06 conv= 1.00D-06.
 RLE energy=       -0.6555132492
 DE(Corr)= -0.65551326     E(CORR)=     -191.85212394     Delta=-1.79D-09
 NORM(A)=   0.11216826D+01
 Iteration Nr.  19
 **********************
 DD1Dir will call FoFMem   1 times, MxPair=       386
 NAB=   132 NAA=    66 NBB=    55.
 Norm of the A-vectors is  4.2017556D-06 conv= 1.00D-06.
 RLE energy=       -0.6555132452
 DE(Corr)= -0.65551325     E(CORR)=     -191.85212393     Delta= 6.61D-09
 NORM(A)=   0.11216826D+01
 Iteration Nr.  20
 **********************
 DD1Dir will call FoFMem   1 times, MxPair=       386
 NAB=   132 NAA=    66 NBB=    55.
 Norm of the A-vectors is  2.6697351D-06 conv= 1.00D-06.
 RLE energy=       -0.6555132415
 DE(Corr)= -0.65551324     E(CORR)=     -191.85212392     Delta= 4.41D-09
 NORM(A)=   0.11216826D+01
 Iteration Nr.  21
 **********************
 DD1Dir will call FoFMem   1 times, MxPair=       386
 NAB=   132 NAA=    66 NBB=    55.
 Norm of the A-vectors is  1.5890545D-06 conv= 1.00D-06.
 RLE energy=       -0.6555132427
 DE(Corr)= -0.65551324     E(CORR)=     -191.85212392     Delta= 1.44D-09
 NORM(A)=   0.11216826D+01
 Iteration Nr.  22
 **********************
 DD1Dir will call FoFMem   1 times, MxPair=       386
 NAB=   132 NAA=    66 NBB=    55.
 Norm of the A-vectors is  8.0282983D-07 conv= 1.00D-06.
 RLE energy=       -0.6555132426
 DE(Corr)= -0.65551324     E(CORR)=     -191.85212392     Delta=-3.31D-10
 NORM(A)=   0.11216826D+01
 CI/CC converged in   22 iterations to DelEn=-3.31D-10 Conv= 1.00D-08 ErrA1= 8.03D-07 Conv= 1.00D-06
 Largest amplitude= 2.04D-02

 Z-AMPLITUDE ITERATIONS

 Iteration Nr.   1
 **********************
 DD1Dir will call FoFMem   1 times, MxPair=       386
 NAB=   132 NAA=    66 NBB=    55.
 Norm of the A-vectors is  2.6718381D-01 conv= 1.00D-06.
 RLE energy=       -0.6555388268
 DE(Z)  -0.63673454D+00          E(Z)=    -0.19183334522D+03
 NORM(A)=   0.11216942D+01
 Iteration Nr.   2
 **********************
 DD1Dir will call FoFMem   1 times, MxPair=       386
 NAB=   132 NAA=    66 NBB=    55.
 Norm of the A-vectors is  2.6752710D-01 conv= 1.00D-06.
 RLE energy=       -0.6555067864
 DE(Z)  -0.63673759D+00          E(Z)=    -0.19183334827D+03
 NORM(A)=   0.11216796D+01
 Iteration Nr.   3
 **********************
 DD1Dir will call FoFMem   1 times, MxPair=       386
 NAB=   132 NAA=    66 NBB=    55.
 Norm of the A-vectors is  2.6710274D-01 conv= 1.00D-06.
 RLE energy=       -0.6555189597
 DE(Z)  -0.63673391D+00          E(Z)=    -0.19183334459D+03
 NORM(A)=   0.11216852D+01
 Iteration Nr.   4
 **********************
 DD1Dir will call FoFMem   1 times, MxPair=       386
 NAB=   132 NAA=    66 NBB=    55.
 Norm of the A-vectors is  2.6725741D-01 conv= 1.00D-06.
 RLE energy=       -0.6555182074
 DE(Z)  -0.63673513D+00          E(Z)=    -0.19183334581D+03
 NORM(A)=   0.11216849D+01
 Iteration Nr.   5
 **********************
 DD1Dir will call FoFMem   1 times, MxPair=       386
 NAB=   132 NAA=    66 NBB=    55.
 Norm of the A-vectors is  2.6724762D-01 conv= 1.00D-06.
 RLE energy=       -0.6345703359
 DE(Z)  -0.63673506D+00          E(Z)=    -0.19183334573D+03
 NORM(A)=   0.11123398D+01
 Iteration Nr.   6
 **********************
 DD1Dir will call FoFMem   1 times, MxPair=       386
 NAB=   132 NAA=    66 NBB=    55.
 Norm of the A-vectors is  4.5298319D-03 conv= 1.00D-06.
 RLE energy=       -0.6345771838
 DE(Z)  -0.63458502D+00          E(Z)=    -0.19183119570D+03
 NORM(A)=   0.11123457D+01
 Iteration Nr.   7
 **********************
 DD1Dir will call FoFMem   1 times, MxPair=       386
 NAB=   132 NAA=    66 NBB=    55.
 Norm of the A-vectors is  1.5226086D-03 conv= 1.00D-06.
 RLE energy=       -0.6345781015
 DE(Z)  -0.63457649D+00          E(Z)=    -0.19183118717D+03
 NORM(A)=   0.11123435D+01
 Iteration Nr.   8
 **********************
 DD1Dir will call FoFMem   1 times, MxPair=       386
 NAB=   132 NAA=    66 NBB=    55.
 Norm of the A-vectors is  5.1054479D-04 conv= 1.00D-06.
 RLE energy=       -0.6345772438
 DE(Z)  -0.63457749D+00          E(Z)=    -0.19183118817D+03
 NORM(A)=   0.11123416D+01
 Iteration Nr.   9
 **********************
 DD1Dir will call FoFMem   1 times, MxPair=       386
 NAB=   132 NAA=    66 NBB=    55.
 Norm of the A-vectors is  2.4998564D-04 conv= 1.00D-06.
 RLE energy=       -0.6345778047
 DE(Z)  -0.63457817D+00          E(Z)=    -0.19183118885D+03
 NORM(A)=   0.11123405D+01
 Iteration Nr.  10
 **********************
 DD1Dir will call FoFMem   1 times, MxPair=       386
 NAB=   132 NAA=    66 NBB=    55.
 Norm of the A-vectors is  9.7255048D-05 conv= 1.00D-06.
 RLE energy=       -0.6345776669
 DE(Z)  -0.63457762D+00          E(Z)=    -0.19183118830D+03
 NORM(A)=   0.11123397D+01
 Iteration Nr.  11
 **********************
 DD1Dir will call FoFMem   1 times, MxPair=       386
 NAB=   132 NAA=    66 NBB=    55.
 Norm of the A-vectors is  4.9859590D-05 conv= 1.00D-06.
 RLE energy=       -0.6345773059
 DE(Z)  -0.63457745D+00          E(Z)=    -0.19183118813D+03
 NORM(A)=   0.11123394D+01
 Iteration Nr.  12
 **********************
 DD1Dir will call FoFMem   1 times, MxPair=       386
 NAB=   132 NAA=    66 NBB=    55.
 Norm of the A-vectors is  3.0969366D-05 conv= 1.00D-06.
 RLE energy=       -0.6345774793
 DE(Z)  -0.63457748D+00          E(Z)=    -0.19183118816D+03
 NORM(A)=   0.11123393D+01
 Iteration Nr.  13
 **********************
 DD1Dir will call FoFMem   1 times, MxPair=       386
 NAB=   132 NAA=    66 NBB=    55.
 Norm of the A-vectors is  1.6386688D-05 conv= 1.00D-06.
 RLE energy=       -0.6345774116
 DE(Z)  -0.63457741D+00          E(Z)=    -0.19183118809D+03
 NORM(A)=   0.11123393D+01
 Iteration Nr.  14
 **********************
 DD1Dir will call FoFMem   1 times, MxPair=       386
 NAB=   132 NAA=    66 NBB=    55.
 Norm of the A-vectors is  8.3116947D-06 conv= 1.00D-06.
 RLE energy=       -0.6345774435
 DE(Z)  -0.63457745D+00          E(Z)=    -0.19183118813D+03
 NORM(A)=   0.11123393D+01
 Iteration Nr.  15
 **********************
 DD1Dir will call FoFMem   1 times, MxPair=       386
 NAB=   132 NAA=    66 NBB=    55.
 Norm of the A-vectors is  4.8006481D-06 conv= 1.00D-06.
 RLE energy=       -0.6345774404
 DE(Z)  -0.63457744D+00          E(Z)=    -0.19183118812D+03
 NORM(A)=   0.11123393D+01
 Iteration Nr.  16
 **********************
 DD1Dir will call FoFMem   1 times, MxPair=       386
 NAB=   132 NAA=    66 NBB=    55.
 Norm of the A-vectors is  3.0601419D-06 conv= 1.00D-06.
 RLE energy=       -0.6345774406
 DE(Z)  -0.63457744D+00          E(Z)=    -0.19183118812D+03
 NORM(A)=   0.11123393D+01
 Iteration Nr.  17
 **********************
 DD1Dir will call FoFMem   1 times, MxPair=       386
 NAB=   132 NAA=    66 NBB=    55.
 Norm of the A-vectors is  1.7821716D-06 conv= 1.00D-06.
 RLE energy=       -0.6345774447
 DE(Z)  -0.63457744D+00          E(Z)=    -0.19183118812D+03
 NORM(A)=   0.11123393D+01
 Iteration Nr.  18
 **********************
 DD1Dir will call FoFMem   1 times, MxPair=       386
 NAB=   132 NAA=    66 NBB=    55.
 Norm of the A-vectors is  1.1435938D-06 conv= 1.00D-06.
 RLE energy=       -0.6345774292
 DE(Z)  -0.63457744D+00          E(Z)=    -0.19183118812D+03
 NORM(A)=   0.11123393D+01
 Iteration Nr.  19
 **********************
 DD1Dir will call FoFMem   1 times, MxPair=       386
 NAB=   132 NAA=    66 NBB=    55.
 Norm of the A-vectors is  4.3872814D-06 conv= 1.00D-06.
 RLE energy=       -0.6345774382
 DE(Z)  -0.63457745D+00          E(Z)=    -0.19183118813D+03
 NORM(A)=   0.11123393D+01
 Iteration Nr.  20
 **********************
 DD1Dir will call FoFMem   1 times, MxPair=       386
 NAB=   132 NAA=    66 NBB=    55.
 Norm of the A-vectors is  1.5315920D-06 conv= 1.00D-06.
 RLE energy=       -0.6345774407
 DE(Z)  -0.63457744D+00          E(Z)=    -0.19183118812D+03
 NORM(A)=   0.11123393D+01
 Iteration Nr.  21
 **********************
 DD1Dir will call FoFMem   1 times, MxPair=       386
 NAB=   132 NAA=    66 NBB=    55.
 Norm of the A-vectors is  1.4413854D-06 conv= 1.00D-06.
 RLE energy=       -0.6345774421
 DE(Z)  -0.63457744D+00          E(Z)=    -0.19183118812D+03
 NORM(A)=   0.11123393D+01
 Iteration Nr.  22
 **********************
 DD1Dir will call FoFMem   1 times, MxPair=       386
 NAB=   132 NAA=    66 NBB=    55.
 Norm of the A-vectors is  5.7317111D-07 conv= 1.00D-06.
 RLE energy=       -0.6345774431
 DE(Z)  -0.63457744D+00          E(Z)=    -0.19183118812D+03
 NORM(A)=   0.11123393D+01
 CI/CC converged in   22 iterations to DelEn= 4.82D-10 Conv= 1.00D-08 ErrA1= 5.73D-07 Conv= 1.00D-06
 Discarding MO integrals.

 S**2, projected HF & approx projected MPn energies after annihilation of
 unwanted spin states (see manual for definitions):

 spins       (S**2,0) (S**2,1)    PUHF        PMP2        PMP3        PMP4
 annihilated
 s+1         0.74968  0.75010 -191.203841 -191.822794 -191.846375
 s+1,s+2     0.75000  0.75000 -191.203793 -191.822753 -191.846341
 s+1 to s+3  0.75000  0.75000 -191.203793 -191.822753 -191.846341
 s+1 to s+4  0.75000  0.75000 -191.203793 -191.822753 -191.846341
 s+1 to s+5  0.75000  0.75000 -191.203793
 s+1 to s+6  0.75000  0.75000 -191.203793

 Leave Link  913 at Fri Oct 30 11:00:05 2009, MaxMem= 1258291200 cpu:   13053.5
 (Enter /home/g09/l1111.exe)
 Selected functions:
 Compute CCSD 2PDM.
 Form Post-SCF non-separable gradient here.
 IO1PDM=    0 IOW=    0 IO2PDM=    0.
 NGot=1258291200.
 Frozen-core window:  NFC=   4 NFV=   0.
 Leave Link 1111 at Fri Oct 30 11:23:29 2009, MaxMem= 1258291200 cpu:    7889.0
 (Enter /home/g09/l1002.exe)
 Minotr:  UHF open shell wavefunction.
          Computing CCSD/QCISD derivatives.
          Using Z-Vector for PSCF gradient.
          Skipping F1 and S1 gradient terms here.
          IDoAtm=111111111
          Frozen-core window.
          Direct CPHF calculation.
          Differentiating once with respect to electric field.
                with respect to dipole field.
          Differentiating once with respect to nuclear coordinates.
          Requested convergence is 1.0D-10 RMS, and 1.0D-09 maximum.
          NewPWx=F KeepS1=T KeepF1=T KeepIn=T MapXYZ=F SortEE=F KeepMc=T.
          MDV=    1258291106 using IRadAn=       0.
          Keep R1 and R2 ints in memory in canonical form, NReq=112874111.
 Symmetry not used in FoFDir.
 MinBra= 0 MaxBra= 2 Meth= 1.
 IRaf=       0 NMat=   1 IRICut=       1 DoRegI=T DoRafI=F ISym2E= 0 JSym2E=0.
          Solving linear equations separately, MaxMat=       0.
          There are     1 degrees of freedom in the 1st order CPHF.  IDoFFX=0.
 LinEq1:  Iter=  0 NonCon=     1 RMS=1.84D-03 Max=1.77D-02
 AX will form     1 AO Fock derivatives at one time.
 LinEq1:  Iter=  1 NonCon=     1 RMS=5.36D-04 Max=3.65D-03
 LinEq1:  Iter=  2 NonCon=     1 RMS=2.63D-04 Max=2.56D-03
 LinEq1:  Iter=  3 NonCon=     1 RMS=7.27D-05 Max=6.29D-04
 LinEq1:  Iter=  4 NonCon=     1 RMS=3.04D-05 Max=3.25D-04
 LinEq1:  Iter=  5 NonCon=     1 RMS=1.17D-05 Max=1.21D-04
 LinEq1:  Iter=  6 NonCon=     1 RMS=4.11D-06 Max=4.78D-05
 LinEq1:  Iter=  7 NonCon=     1 RMS=1.57D-06 Max=1.67D-05
 LinEq1:  Iter=  8 NonCon=     1 RMS=5.32D-07 Max=3.80D-06
 LinEq1:  Iter=  9 NonCon=     1 RMS=1.33D-07 Max=1.55D-06
 LinEq1:  Iter= 10 NonCon=     1 RMS=3.68D-08 Max=3.66D-07
 LinEq1:  Iter= 11 NonCon=     1 RMS=1.14D-08 Max=1.07D-07
 LinEq1:  Iter= 12 NonCon=     1 RMS=4.30D-09 Max=6.19D-08
 LinEq1:  Iter= 13 NonCon=     1 RMS=1.73D-09 Max=2.87D-08
 LinEq1:  Iter= 14 NonCon=     1 RMS=5.36D-10 Max=6.86D-09
 LinEq1:  Iter= 15 NonCon=     1 RMS=1.57D-10 Max=1.45D-09
 LinEq1:  Iter= 16 NonCon=     0 RMS=3.73D-11 Max=3.17D-10
 Linear equations converged to 1.000D-10 1.000D-09 after    16 iterations.
 End of Minotr Frequency-dependent properties file   721 does not exist.
 End of Minotr Frequency-dependent properties file   722 does not exist.
 Leave Link 1002 at Fri Oct 30 11:23:40 2009, MaxMem= 1258291200 cpu:      63.6
 (Enter /home/g09/l601.exe)
 Copying SCF densities to generalized density rwf, IOpCl= 1 IROHF=0.

 **********************************************************************

            Population analysis using the SCF density.

 **********************************************************************

 Alpha  occ. eigenvalues --  -20.60266 -11.32012 -11.26511 -11.26036  -1.40127
 Alpha  occ. eigenvalues --   -1.16973  -0.85784  -0.81411  -0.72169  -0.66607
 Alpha  occ. eigenvalues --   -0.62869  -0.55692  -0.52851  -0.47688  -0.40550
 Alpha  occ. eigenvalues --   -0.30978
 Alpha virt. eigenvalues --    0.03367   0.04831   0.05090   0.05288   0.07093
 Alpha virt. eigenvalues --    0.09562   0.12022   0.12154   0.13099   0.13871
 Alpha virt. eigenvalues --    0.15556   0.15885   0.16754   0.17953   0.20153
 Alpha virt. eigenvalues --    0.20938   0.21933   0.24500   0.25383   0.28830
 Alpha virt. eigenvalues --    0.29083   0.30238   0.31510   0.33451   0.35534
 Alpha virt. eigenvalues --    0.36355   0.37197   0.39881   0.42055   0.43708
 Alpha virt. eigenvalues --    0.44674   0.45102   0.46514   0.48130   0.49589
 Alpha virt. eigenvalues --    0.50704   0.52068   0.55518   0.57036   0.57322
 Alpha virt. eigenvalues --    0.58440   0.59772   0.61957   0.62946   0.63928
 Alpha virt. eigenvalues --    0.64743   0.66192   0.68885   0.69831   0.70309
 Alpha virt. eigenvalues --    0.72300   0.74250   0.75107   0.76100   0.77565
 Alpha virt. eigenvalues --    0.79197   0.82235   0.84705   0.91197   0.93670
 Alpha virt. eigenvalues --    0.95146   1.03080   1.04879   1.11427   1.11981
 Alpha virt. eigenvalues --    1.18884   1.21726   1.23132   1.23931   1.28174
 Alpha virt. eigenvalues --    1.31539   1.35368   1.41230   1.43712   1.46846
 Alpha virt. eigenvalues --    1.54984   1.58208   1.59670   1.61432   1.64406
 Alpha virt. eigenvalues --    1.67056   1.71965   1.74618   1.79671   1.82207
 Alpha virt. eigenvalues --    1.89929   1.91206   1.95490   1.98541   2.00712
 Alpha virt. eigenvalues --    2.02975   2.07348   2.10385   2.11980   2.16456
 Alpha virt. eigenvalues --    2.21191   2.25910   2.28500   2.30435   2.36821
 Alpha virt. eigenvalues --    2.40777   2.50547   2.54346   2.55481   2.59163
 Alpha virt. eigenvalues --    2.63704   2.68659   2.70444   2.75487   2.85717
 Alpha virt. eigenvalues --    2.88231   2.92827   3.08709   3.26143   3.30326
 Alpha virt. eigenvalues --    3.60409   3.73918   3.81066   3.84723   4.00759
 Alpha virt. eigenvalues --    4.27984
  Beta  occ. eigenvalues --  -20.59902 -11.30414 -11.25893 -11.24928  -1.38878
  Beta  occ. eigenvalues --   -1.14512  -0.83334  -0.78068  -0.69809  -0.63492
  Beta  occ. eigenvalues --   -0.61740  -0.54542  -0.50453  -0.45057  -0.36105
  Beta virt. eigenvalues --    0.03281   0.04848   0.05163   0.05277   0.07168
  Beta virt. eigenvalues --    0.08620   0.10239   0.12032   0.12380   0.13775
  Beta virt. eigenvalues --    0.14816   0.16001   0.16457   0.17638   0.18277
  Beta virt. eigenvalues --    0.20671   0.21185   0.22677   0.24759   0.25829
  Beta virt. eigenvalues --    0.29339   0.29388   0.30637   0.33630   0.35204
  Beta virt. eigenvalues --    0.35865   0.36576   0.37673   0.40040   0.42448
  Beta virt. eigenvalues --    0.44114   0.45611   0.45850   0.46988   0.49079
  Beta virt. eigenvalues --    0.50079   0.50871   0.52887   0.56600   0.57879
  Beta virt. eigenvalues --    0.58999   0.59439   0.60170   0.62071   0.63553
  Beta virt. eigenvalues --    0.64682   0.65275   0.66775   0.69593   0.70704
  Beta virt. eigenvalues --    0.71521   0.72688   0.75277   0.75584   0.76847
  Beta virt. eigenvalues --    0.78478   0.80396   0.82823   0.85356   0.91835
  Beta virt. eigenvalues --    0.94680   0.95712   1.03411   1.05497   1.12073
  Beta virt. eigenvalues --    1.12698   1.19962   1.22653   1.23437   1.25217
  Beta virt. eigenvalues --    1.29734   1.32152   1.37709   1.41938   1.44506
  Beta virt. eigenvalues --    1.48078   1.55944   1.58781   1.60178   1.62125
  Beta virt. eigenvalues --    1.65399   1.68051   1.73323   1.75423   1.81178
  Beta virt. eigenvalues --    1.83469   1.91187   1.93217   1.96017   1.99463
  Beta virt. eigenvalues --    2.01796   2.03325   2.08014   2.10754   2.12418
  Beta virt. eigenvalues --    2.17372   2.21763   2.26587   2.28621   2.31017
  Beta virt. eigenvalues --    2.37421   2.41838   2.51401   2.55297   2.56060
  Beta virt. eigenvalues --    2.59744   2.64395   2.69806   2.71622   2.75583
  Beta virt. eigenvalues --    2.86187   2.88909   2.93092   3.09352   3.27050
  Beta virt. eigenvalues --    3.30632   3.60629   3.74610   3.81662   3.85264
  Beta virt. eigenvalues --    4.01283   4.28239
          Condensed to atoms (all electrons):
              1          2          3          4          5          6
     1  C    4.274467   0.287257   0.283073   0.326413   0.335649  -0.037217
     2  H    0.287257   1.222096  -0.177915  -0.036912  -0.082333  -0.031202
     3  H    0.283073  -0.177915   1.293049  -0.111271   0.013716   0.023200
     4  C    0.326413  -0.036912  -0.111271   6.486899  -0.648278  -0.071033
     5  C    0.335649  -0.082333   0.013716  -0.648278   5.967601   0.309770
     6  H   -0.037217  -0.031202   0.023200  -0.071033   0.309770   1.179869
     7  H   -0.020234   0.057335  -0.059222   0.001876   0.030940  -0.064732
     8  O   -0.015637  -0.002718   0.020207  -0.240064   0.077282  -0.004642
     9  H    0.008467   0.000656  -0.002081  -0.026648  -0.048404   0.007470
              7          8          9
     1  C   -0.020234  -0.015637   0.008467
     2  H    0.057335  -0.002718   0.000656
     3  H   -0.059222   0.020207  -0.002081
     4  C    0.001876  -0.240064  -0.026648
     5  C    0.030940   0.077282  -0.048404
     6  H   -0.064732  -0.004642   0.007470
     7  H    0.644396  -0.049943   0.008470
     8  O   -0.049943   8.530858   0.355949
     9  H    0.008470   0.355949   0.566273
 Mulliken atomic charges:
              1
     1  C    0.557764
     2  H   -0.236264
     3  H   -0.282757
     4  C    0.319016
     5  C    0.044056
     6  H   -0.311483
     7  H    0.451113
     8  O   -0.671293
     9  H    0.129849
 Sum of Mulliken atomic charges =   0.00000
 Mulliken charges with hydrogens summed into heavy atoms:
              1
     1  C    0.038743
     4  C    0.770129
     5  C   -0.267428
     8  O   -0.541445
 Sum of Mulliken charges with hydrogens summed into heavy atoms =   0.00000
          Atomic-Atomic Spin Densities.
              1          2          3          4          5          6
     1  C    0.058059  -0.002607   0.026680  -0.025795   0.004552  -0.006886
     2  H   -0.002607  -0.022733   0.007776   0.014426   0.009998   0.001125
     3  H    0.026680   0.007776  -0.031145  -0.009220  -0.013483  -0.000797
     4  C   -0.025795   0.014426  -0.009220   1.612521  -0.749792   0.024195
     5  C    0.004552   0.009998  -0.013483  -0.749792   1.355130   0.014839
     6  H   -0.006886   0.001125  -0.000797   0.024195   0.014839  -0.044294
     7  H   -0.033985  -0.019314   0.027056  -0.029588   0.021354  -0.002984
     8  O    0.013441  -0.002419   0.000212  -0.214910   0.064088  -0.001098
     9  H   -0.005176  -0.000225   0.000413   0.031786  -0.000881  -0.001253
              7          8          9
     1  C   -0.033985   0.013441  -0.005176
     2  H   -0.019314  -0.002419  -0.000225
     3  H    0.027056   0.000212   0.000413
     4  C   -0.029588  -0.214910   0.031786
     5  C    0.021354   0.064088  -0.000881
     6  H   -0.002984  -0.001098  -0.001253
     7  H   -0.355617   0.017240  -0.007287
     8  O    0.017240   0.146688  -0.010272
     9  H   -0.007287  -0.010272  -0.001026
 Mulliken atomic spin densities:
              1
     1  C    0.028282
     2  H   -0.013973
     3  H    0.007492
     4  C    0.653623
     5  C    0.705806
     6  H   -0.017153
     7  H   -0.383126
     8  O    0.012970
     9  H    0.006079
 Sum of Mulliken atomic spin densities =   1.00000
 Electronic spatial extent (au):  <R**2>=            428.4970
 Charge=              0.0000 electrons
 Dipole moment (field-independent basis, Debye):
    X=             -1.1873    Y=             -1.3347    Z=              0.4070  Tot=              1.8322
 Quadrupole moment (field-independent basis, Debye-Ang):
   XX=            -18.0971   YY=            -30.7748   ZZ=            -25.4284
   XY=              2.1276   XZ=             -0.2258   YZ=             -0.4945
 Traceless Quadrupole moment (field-independent basis, Debye-Ang):
   XX=              6.6697   YY=             -6.0081   ZZ=             -0.6616
   XY=              2.1276   XZ=             -0.2258   YZ=             -0.4945
 Octapole moment (field-independent basis, Debye-Ang**2):
  XXX=             54.3721  YYY=            -36.1625  ZZZ=             25.1097  XYY=             32.4844
  XXY=             -8.4663  XXZ=              8.5491  XZZ=             27.1635  YZZ=             -8.0462
  YYZ=             10.4519  XYZ=             -0.1000
 Hexadecapole moment (field-independent basis, Debye-Ang**3):
 XXXX=           -205.0067 YYYY=           -194.3113 ZZZZ=            -73.3790 XXXY=             38.0339
 XXXZ=            -34.7205 YYYX=             75.4747 YYYZ=             -1.5828 ZZZX=            -27.9716
 ZZZY=             -2.8242 XXYY=            -82.0686 XXZZ=            -62.4276 YYZZ=            -46.7230
 XXYZ=              2.0659 YYXZ=            -12.9926 ZZXY=             17.7476
 N-N= 1.151107765144D+02 E-N=-1.010739788777D+03  KE= 2.853343103233D+02
                          Isotropic Fermi Contact Couplings
        Atom                 a.u.       MegaHertz       Gauss      10(-4) cm-1
     1  C(13)              0.00666       7.49175       2.67324       2.49898
     2  H(1)              -0.00164      -7.31116      -2.60880      -2.43874
     3  H(1)              -0.00158      -7.06442      -2.52076      -2.35644
     4  C(13)              0.24819     279.01672      99.56010      93.06996
     5  C(13)              0.22003     247.35181      88.26127      82.50768
     6  H(1)               0.00215       9.61523       3.43095       3.20730
     7  H(1)              -0.02872    -128.39315     -45.81387     -42.82735
     8  O(17)              0.07029     -42.60877     -15.20387     -14.21276
     9  H(1)              -0.00065      -2.88917      -1.03093      -0.96372
 --------------------------------------------------------
       Center         ----  Spin Dipole Couplings  ----
                      3XX-RR        3YY-RR        3ZZ-RR
 --------------------------------------------------------
     1   Atom       -0.042550      0.091706     -0.049156
     2   Atom       -0.009232     -0.002081      0.011313
     3   Atom        0.015084     -0.006211     -0.008873
     4   Atom       -0.247118     -0.166112      0.413230
     5   Atom       -0.258636     -0.245937      0.504572
     6   Atom       -0.004483      0.000839      0.003644
     7   Atom       -0.087438      0.101235     -0.013797
     8   Atom       -0.160641     -0.187646      0.348287
     9   Atom        0.013205     -0.009832     -0.003373
 --------------------------------------------------------
                        XY            XZ            YZ
 --------------------------------------------------------
     1   Atom       -0.015726      0.009037      0.006262
     2   Atom        0.001668      0.010102     -0.003010
     3   Atom       -0.000552     -0.000357     -0.000245
     4   Atom        0.017519     -0.047548     -0.202474
     5   Atom        0.001294     -0.039471      0.022297
     6   Atom        0.033703     -0.010969     -0.010521
     7   Atom        0.003697      0.003358      0.006066
     8   Atom        0.006728     -0.017766      0.064185
     9   Atom        0.004123     -0.012159      0.001752
 --------------------------------------------------------


 ---------------------------------------------------------------------------------
              Anisotropic Spin Dipole Couplings in Principal Axis System
 ---------------------------------------------------------------------------------

       Atom             a.u.   MegaHertz   Gauss  10(-4) cm-1        Axes

              Baa    -0.0569    -7.630    -2.723    -2.545 -0.6057 -0.0974  0.7897
     1 C(13)  Bbb    -0.0369    -4.945    -1.765    -1.650  0.7877  0.0665  0.6124
              Bcc     0.0937    12.575     4.487     4.195 -0.1122  0.9930  0.0364
 
              Baa    -0.0140    -7.459    -2.662    -2.488  0.8959 -0.2228 -0.3843
     2 H(1)   Bbb    -0.0017    -0.924    -0.330    -0.308  0.2524  0.9672  0.0277
              Bcc     0.0157     8.383     2.991     2.796  0.3655 -0.1218  0.9228
 
              Baa    -0.0089    -4.750    -1.695    -1.584  0.0170  0.0942  0.9954
     3 H(1)   Bbb    -0.0062    -3.309    -1.181    -1.104  0.0242  0.9952 -0.0946
              Bcc     0.0151     8.058     2.875     2.688  0.9996 -0.0257 -0.0146
 
              Baa    -0.2509   -33.671   -12.015   -11.231  0.9910 -0.1298  0.0314
     4 C(13)  Bbb    -0.2296   -30.808   -10.993   -10.276  0.1141  0.9451  0.3061
              Bcc     0.4805    64.478    23.007    21.508 -0.0694 -0.2998  0.9515
 
              Baa    -0.2611   -35.035   -12.501   -11.686  0.9846 -0.1660  0.0556
     5 C(13)  Bbb    -0.2462   -33.035   -11.788   -11.019  0.1673  0.9857 -0.0205
              Bcc     0.5073    68.070    24.289    22.706 -0.0514  0.0295  0.9982
 
              Baa    -0.0357   -19.023    -6.788    -6.345  0.7380 -0.6743  0.0255
     6 H(1)   Bbb    -0.0029    -1.560    -0.557    -0.520  0.2516  0.3100  0.9168
              Bcc     0.0386    20.583     7.345     6.866  0.6261  0.6702 -0.3985
 
              Baa    -0.0877   -46.767   -16.688   -15.600  0.9989 -0.0181 -0.0439
     7 H(1)   Bbb    -0.0140    -7.459    -2.662    -2.488  0.0429 -0.0539  0.9976
              Bcc     0.1016    54.227    19.349    18.088  0.0205  0.9984  0.0531
 
              Baa    -0.1973    14.280     5.095     4.763 -0.2354  0.9643 -0.1211
     8 O(17)  Bbb    -0.1591    11.510     4.107     3.839  0.9714  0.2376  0.0040
              Bcc     0.3564   -25.790    -9.203    -8.603 -0.0326  0.1167  0.9926
 
              Baa    -0.0134    -7.158    -2.554    -2.388 -0.3777  0.7195 -0.5828
     9 H(1)   Bbb    -0.0065    -3.462    -1.235    -1.155  0.2716  0.6878  0.6731
              Bcc     0.0199    10.620     3.789     3.542  0.8852  0.0959 -0.4552
 

 ---------------------------------------------------------------------------------

 No NMR shielding tensors so no spin-rotation constants.
 Leave Link  601 at Fri Oct 30 11:23:41 2009, MaxMem= 1258291200 cpu:       1.9
 (Enter /home/g09/l701.exe)
 Compute integral first derivatives.
 ... and contract with generalized density number  7.
 Leave Link  701 at Fri Oct 30 11:23:41 2009, MaxMem= 1258291200 cpu:       1.4
 (Enter /home/g09/l702.exe)
 L702 exits ... SP integral derivatives will be done elsewhere.
 Leave Link  702 at Fri Oct 30 11:23:41 2009, MaxMem= 1258291200 cpu:       0.3
 (Enter /home/g09/l703.exe)
 Compute integral first derivatives, UseDBF=F ICtDFT=           0.
 Integral derivatives from FoFDir, PRISM(SPDF).
 Calling FoFJK, ICntrl=      2127 FMM=F ISym2X=0 I1Cent= 0 IOpClX= 1 NMat=1 NMatS=1 NMatT=0.
 FoFCou: FMM=F IPFlag=           0 FMFlag=      100000 FMFlg1=         800
         NFxFlg=           0 DoJE=F BraDBF=F KetDBF=F FulRan=T
         Omega=  0.000000  0.000000  1.000000  0.000000  0.000000 ICntrl=    2127 IOpCl=  1
         NMat0=    1 NMatS0=    1 NMatT0=    0 NMatD0=    1 NMtDS0=    0 NMtDT0=    0
         I1Cent=           0 NGrid=           0.
 Symmetry not used in FoFCou.
 Leave Link  703 at Fri Oct 30 11:23:43 2009, MaxMem= 1258291200 cpu:      13.7
 (Enter /home/g09/l716.exe)
 Dipole        =-4.55935781D-01-4.59443437D-01 1.61193173D-01
 -------------------------------------------------------------------
 Center     Atomic                   Forces (Hartrees/Bohr)
 Number     Number              X              Y              Z
 -------------------------------------------------------------------
      1        6          -0.000000085    0.000000083    0.000000221
      2        1           0.000000056   -0.000000004    0.000000057
      3        1          -0.000000144   -0.000000013   -0.000000130
      4        6           0.000000251    0.000000127   -0.000000310
      5        6           0.000000229   -0.000000140   -0.000000058
      6        1          -0.000000061    0.000000082   -0.000000073
      7        1          -0.000000089   -0.000000172    0.000000098
      8        8          -0.000000346   -0.000000208    0.000000299
      9        1           0.000000190    0.000000245   -0.000000104
 -------------------------------------------------------------------
 Cartesian Forces:  Max     0.000000346 RMS     0.000000170
 Leave Link  716 at Fri Oct 30 11:23:43 2009, MaxMem= 1258291200 cpu:       0.5
 (Enter /home/g09/l103.exe)

 GradGradGradGradGradGradGradGradGradGradGradGradGradGradGradGradGradGrad
 Berny optimization.
 Internal  Forces:  Max     0.000000285 RMS     0.000000094
 Search for a saddle point.
 Step number   1 out of a maximum of   50
 All quantities printed in internal units (Hartrees-Bohrs-Radians)
 Swaping is turned off.
 Second derivative matrix not updated -- first step.
     Eigenvalues ---   -0.19849   0.00179   0.00883   0.01462   0.02426
     Eigenvalues ---    0.02725   0.03317   0.05116   0.05286   0.06368
     Eigenvalues ---    0.07988   0.09917   0.12080   0.15098   0.22449
     Eigenvalues ---    0.25242   0.32848   0.34375   0.41820   0.48384
     Eigenvalues ---    1.147851000.000001000.000001000.000001000.00000
     Eigenvalues --- 1000.000001000.000001000.000001000.000001000.00000
     Eigenvalues --- 1000.000001000.000001000.000001000.000001000.00000
     Eigenvalues --- 1000.00000
 Eigenvectors required to have negative eigenvalues:
                          R6        R9        A9        A6        D8
   1                    0.52151  -0.47197   0.38778  -0.35834   0.26125
                          D6        A4        R5        A12       A2
   1                    0.24992   0.13395  -0.11726  -0.11611  -0.11559
 RFO step:  Lambda0=8.756884107D-15 Lambda= 0.00000000D+00.
 Linear search not attempted -- option 19 set.
 Iteration  1 RMS(Cart)=  0.00001166 RMS(Int)=  0.00000000
 Iteration  2 RMS(Cart)=  0.00000000 RMS(Int)=  0.00000000
 Variable       Old X    -DE/DX   Delta X   Delta X   Delta X     New X
                                 (Linear)    (Quad)   (Total)
    R1        2.07322   0.00000   0.00000   0.00000   0.00000   2.07323
    R2        2.06853   0.00000   0.00000   0.00000   0.00000   2.06853
    R3        2.84150   0.00000   0.00000   0.00000   0.00000   2.84150
    R4        2.88479   0.00000   0.00000   0.00000   0.00000   2.88479
    R5        2.78110   0.00000   0.00000   0.00000   0.00000   2.78110
    R6        2.45291   0.00000   0.00000   0.00000   0.00000   2.45291
    R7        2.61351   0.00000   0.00000   0.00000   0.00000   2.61351
    R8        2.06424   0.00000   0.00000   0.00000   0.00000   2.06424
    R9        2.53080   0.00000   0.00000   0.00000   0.00000   2.53080
   R10        1.82650   0.00000   0.00000  -0.00002  -0.00002   1.82649
    A1        2.00870   0.00000   0.00000   0.00000   0.00000   2.00870
    A2        1.97806   0.00000   0.00000   0.00000   0.00000   1.97807
    A3        1.98886   0.00000   0.00000   0.00000   0.00000   1.98886
    A4        2.13945   0.00000   0.00000   0.00000   0.00000   2.13945
    A5        2.12738   0.00000   0.00000   0.00000   0.00000   2.12737
    A6        1.66703   0.00000   0.00000   0.00000   0.00000   1.66703
    A7        2.25732   0.00000   0.00000  -0.00001  -0.00001   2.25732
    A8        2.33174   0.00000   0.00000   0.00000   0.00000   2.33173
    A9        2.35094   0.00000   0.00000   0.00000   0.00000   2.35094
   A10        2.34865   0.00000   0.00000   0.00000   0.00000   2.34865
   A11        1.61898   0.00000   0.00000   0.00000   0.00000   1.61898
   A12        2.32842   0.00000   0.00000   0.00000   0.00000   2.32842
   A13        2.29870   0.00000   0.00000  -0.00001  -0.00001   2.29869
   A14        1.89202   0.00000   0.00000   0.00001   0.00001   1.89202
    D1       -2.66765   0.00000   0.00000   0.00000   0.00000  -2.66765
    D2        0.35336   0.00000   0.00000   0.00000   0.00000   0.35335
    D3        1.07675   0.00000   0.00000   0.00000   0.00000   1.07674
    D4       -2.18543   0.00000   0.00000   0.00000   0.00000  -2.18544
    D5       -0.34262   0.00000   0.00000   0.00000   0.00000  -0.34261
    D6        2.61135   0.00000   0.00000   0.00000   0.00000   2.61135
    D7        2.19467   0.00000   0.00000   0.00001   0.00001   2.19467
    D8       -1.13455   0.00000   0.00000   0.00000   0.00000  -1.13455
    D9        0.10526   0.00000   0.00000   0.00001   0.00001   0.10527
   D10       -1.92382   0.00000   0.00000  -0.00006  -0.00006  -1.92388
   D11       -0.41838   0.00000   0.00000  -0.00006  -0.00006  -0.41844
   D12        1.04851   0.00000   0.00000  -0.00006  -0.00006   1.04845
         Item               Value     Threshold  Converged?
 Maximum Force            0.000000     0.000002     YES
 RMS     Force            0.000000     0.000001     YES
 Maximum Displacement     0.000045     0.000006     NO 
 RMS     Displacement     0.000012     0.000004     NO 
 Predicted change in Energy=-1.107842D-11
 GradGradGradGradGradGradGradGradGradGradGradGradGradGradGradGradGradGrad

 Leave Link  103 at Fri Oct 30 11:23:43 2009, MaxMem= 1258291200 cpu:       0.1
 (Enter /home/g09/l202.exe)
                          Input orientation:                          
 ---------------------------------------------------------------------
 Center     Atomic      Atomic             Coordinates (Angstroms)
 Number     Number       Type             X           Y           Z
 ---------------------------------------------------------------------
      1          6           0        0.000002    0.000000    0.000000
      2          1           0        0.000008   -0.000001    1.097104
      3          1           0        0.991335    0.000003   -0.464170
      4          6           0       -1.172949    0.728306   -0.595596
      5          6           0       -1.180674   -0.743168   -0.619769
      6          1           0       -1.886122   -1.496126   -0.261131
      7          1           0       -1.194446    0.047552   -1.700574
      8          8           0       -1.999229    1.677076   -0.021301
      9          1           0       -2.872205    1.283060    0.108523
 ---------------------------------------------------------------------
                    Distance matrix (angstroms):
                    1          2          3          4          5
     1  C    0.000000
     2  H    1.097104   0.000000
     3  H    1.094621   1.849407   0.000000
     4  C    1.503655   2.184374   2.287318   0.000000
     5  C    1.526568   2.212229   2.300899   1.471692   0.000000
     6  H    2.421580   2.764178   3.249521   2.359784   1.092348
     7  H    2.078682   3.042364   2.511690   1.298023   1.339241
     8  O    2.609591   2.839078   3.457192   1.383010   2.624076
     9  H    3.147633   3.297445   4.111101   1.921199   2.738117
                    6          7          8          9
     6  H    0.000000
     7  H    2.221116   0.000000
     8  O    3.184262   2.474466   0.000000
     9  H    2.972016   2.759381   0.966535   0.000000
 Symmetry turned off by external request.
 Stoichiometry    C3H5O(2)
 Framework group  C1[X(C3H5O)]
 Deg. of freedom    21
 Full point group                 C1      NOp   1
 Rotational constants (GHZ):     18.9534065      6.7973339      5.6490530
 Leave Link  202 at Fri Oct 30 11:23:43 2009, MaxMem= 1258291200 cpu:       0.0
 (Enter /home/g09/l301.exe)
 Standard basis: Aug-CC-pVDZ (5D, 7F)
 Ernie: Thresh=  0.10000D-02 Tol=  0.10000D-05 Strict=F.
 Ernie:  8 primitive shells out of 135 were deleted.
 Integral buffers will be    131072 words long.
 Raffenetti 2 integral format.
 Two-electron integral symmetry is turned off.
   137 basis functions,   227 primitive gaussians,   145 cartesian basis functions
    16 alpha electrons       15 beta electrons
       nuclear repulsion energy       115.1108269588 Hartrees.
 IExCor=    0 DFT=F Ex=HF Corr=None ExCW=0 ScaHFX=  1.000000
 ScaDFX=  1.000000  1.000000  1.000000  1.000000 ScalE2=  1.000000  1.000000
 IRadAn=      0 IRanWt=     -1 IRanGd=            0 ICorTp=0
 NAtoms=    9 NActive=    9 NUniq=    9 SFac= 7.50D-01 NAtFMM=   80 NAOKFM=F Big=F
 Leave Link  301 at Fri Oct 30 11:23:44 2009, MaxMem= 1258291200 cpu:       0.4
 (Enter /home/g09/l302.exe)
 NPDir=0 NMtPBC=     1 NCelOv=     1 NCel=       1 NClECP=     1 NCelD=      1
         NCelK=      1 NCelE2=     1 NClLst=     1 CellRange=     0.0.
 One-electron integrals computed using PRISM.
 NBasis=   137 RedAO= T  NBF=   137
 NBsUse=   137 1.00D-06 NBFU=   137
 Leave Link  302 at Fri Oct 30 11:23:44 2009, MaxMem= 1258291200 cpu:       1.2
 (Enter /home/g09/l303.exe)
 DipDrv:  MaxL=1.
 Leave Link  303 at Fri Oct 30 11:23:44 2009, MaxMem= 1258291200 cpu:       0.3
 (Enter /home/g09/l401.exe)
 Initial guess read from the read-write file.
 B after Tr=     0.000000    0.000000    0.000000
         Rot=    1.000000    0.000000    0.000000    0.000000 Ang=   0.00 deg.
 Guess basis will be translated and rotated to current coordinates.
 Initial guess <Sx>= 0.0000 <Sy>= 0.0000 <Sz>= 0.5000 <S**2>= 0.8020 S= 0.5257
 Leave Link  401 at Fri Oct 30 11:23:44 2009, MaxMem= 1258291200 cpu:       1.3
 (Enter /home/g09/l502.exe)
 UHF open shell SCF:
 Requested convergence on RMS density matrix=1.00D-08 within  64 cycles.
 Requested convergence on MAX density matrix=1.00D-06.
 Requested convergence on             energy=1.00D-06.
 No special actions if energy rises.
 Using DIIS extrapolation, IDIIS=  1040.
 Two-electron integral symmetry not used.
 Keep R1 and R2 ints in memory in canonical form, NReq=113679197.
 IEnd=       70371 IEndB=       70371 NGot=  1258291200 MDV=  1146193386
 LenX=  1146193386 LenY=  1146171920
 Symmetry not used in FoFDir.
 MinBra= 0 MaxBra= 2 Meth= 1.
 IRaf=       0 NMat=   1 IRICut=       1 DoRegI=T DoRafI=F ISym2E= 0 JSym2E=0.

 Cycle   1  Pass 1  IDiag  1:
 E= -191.196611115203    
 DIIS: error= 8.82D-07 at cycle   1 NSaved=   1.
 NSaved= 1 IEnMin= 1 EnMin= -191.196611115203     IErMin= 1 ErrMin= 8.82D-07
 ErrMax= 8.82D-07 EMaxC= 1.00D-01 BMatC= 1.84D-09 BMatP= 1.84D-09
 IDIUse=1 WtCom= 1.00D+00 WtEn= 0.00D+00
 Coeff-Com:  0.100D+01
 Coeff:      0.100D+01
 Gap=     0.343 Goal=   None    Shift=    0.000
 Gap=     0.394 Goal=   None    Shift=    0.000
 RMSDP=3.28D-07 MaxDP=9.86D-06              OVMax= 4.52D-06

 Cycle   2  Pass 1  IDiag  1:
 E= -191.196611115686     Delta-E=       -0.000000000483 Rises=F Damp=F
 DIIS: error= 1.97D-07 at cycle   2 NSaved=   2.
 NSaved= 2 IEnMin= 2 EnMin= -191.196611115686     IErMin= 2 ErrMin= 1.97D-07
 ErrMax= 1.97D-07 EMaxC= 1.00D-01 BMatC= 8.75D-11 BMatP= 1.84D-09
 IDIUse=1 WtCom= 1.00D+00 WtEn= 0.00D+00
 Coeff-Com: -0.218D+00 0.122D+01
 Coeff:     -0.218D+00 0.122D+01
 Gap=     0.343 Goal=   None    Shift=    0.000
 Gap=     0.394 Goal=   None    Shift=    0.000
 RMSDP=8.32D-08 MaxDP=2.44D-06 DE=-4.83D-10 OVMax= 2.04D-06

 Cycle   3  Pass 1  IDiag  1:
 E= -191.196611115724     Delta-E=       -0.000000000038 Rises=F Damp=F
 DIIS: error= 5.12D-08 at cycle   3 NSaved=   3.
 NSaved= 3 IEnMin= 3 EnMin= -191.196611115724     IErMin= 3 ErrMin= 5.12D-08
 ErrMax= 5.12D-08 EMaxC= 1.00D-01 BMatC= 4.21D-12 BMatP= 8.75D-11
 IDIUse=1 WtCom= 1.00D+00 WtEn= 0.00D+00
 Coeff-Com:  0.234D-01-0.220D+00 0.120D+01
 Coeff:      0.234D-01-0.220D+00 0.120D+01
 Gap=     0.343 Goal=   None    Shift=    0.000
 Gap=     0.394 Goal=   None    Shift=    0.000
 RMSDP=2.16D-08 MaxDP=5.63D-07 DE=-3.84D-11 OVMax= 1.00D-06

 Cycle   4  Pass 1  IDiag  1:
 E= -191.196611115728     Delta-E=       -0.000000000004 Rises=F Damp=F
 DIIS: error= 2.59D-08 at cycle   4 NSaved=   4.
 NSaved= 4 IEnMin= 4 EnMin= -191.196611115728     IErMin= 4 ErrMin= 2.59D-08
 ErrMax= 2.59D-08 EMaxC= 1.00D-01 BMatC= 9.87D-13 BMatP= 4.21D-12
 IDIUse=1 WtCom= 1.00D+00 WtEn= 0.00D+00
 Coeff-Com:  0.258D-01-0.161D+00 0.187D+00 0.948D+00
 Coeff:      0.258D-01-0.161D+00 0.187D+00 0.948D+00
 Gap=     0.343 Goal=   None    Shift=    0.000
 Gap=     0.394 Goal=   None    Shift=    0.000
 RMSDP=1.05D-08 MaxDP=2.81D-07 DE=-4.09D-12 OVMax= 5.35D-07

 Cycle   5  Pass 1  IDiag  1:
 E= -191.196611115728     Delta-E=        0.000000000000 Rises=F Damp=F
 DIIS: error= 1.92D-08 at cycle   5 NSaved=   5.
 NSaved= 5 IEnMin= 5 EnMin= -191.196611115728     IErMin= 5 ErrMin= 1.92D-08
 ErrMax= 1.92D-08 EMaxC= 1.00D-01 BMatC= 2.28D-13 BMatP= 9.87D-13
 IDIUse=1 WtCom= 1.00D+00 WtEn= 0.00D+00
 Coeff-Com: -0.531D-02 0.444D-01-0.207D+00-0.907D-01 0.126D+01
 Coeff:     -0.531D-02 0.444D-01-0.207D+00-0.907D-01 0.126D+01
 Gap=     0.343 Goal=   None    Shift=    0.000
 Gap=     0.394 Goal=   None    Shift=    0.000
 RMSDP=8.41D-09 MaxDP=2.30D-07 DE=-3.41D-13 OVMax= 6.10D-07

 SCF Done:  E(UHF) =  -191.196611116     A.U. after    5 cycles
             Convg  =    0.8411D-08             -V/T =  2.0019
 <Sx>= 0.0000 <Sy>= 0.0000 <Sz>= 0.5000 <S**2>= 0.8020 S= 0.5257
 <L.S>= 0.000000000000E+00
 KE= 1.908317888520D+02 PE=-6.780901642758D+02 EE= 1.809509373493D+02
 Annihilation of the first spin contaminant:
 S**2 before annihilation     0.8020,   after     0.7505
 Leave Link  502 at Fri Oct 30 11:23:49 2009, MaxMem= 1258291200 cpu:      27.9
 (Enter /home/g09/l508.exe)
 QCSCF skips out because SCF is already converged.
 Leave Link  508 at Fri Oct 30 11:23:49 2009, MaxMem= 1258291200 cpu:       0.0
 (Enter /home/g09/l801.exe)
 Windowed orbitals will be sorted by symmetry type.
 ExpMin= 2.97D-02 ExpMax= 1.17D+04 ExpMxC= 4.01D+02 IAcc=3 IRadAn=         5 AccDes= 0.00D+00
 HarFok:  IExCor=  205 AccDes= 0.00D+00 IRadAn=         5 IDoV=-2
 ScaDFX=  1.000000  1.000000  1.000000  1.000000
 Largest valence mixing into a core orbital is  1.13D-04
 Largest core mixing into a valence orbital is  3.48D-05
 Largest valence mixing into a core orbital is  1.28D-04
 Largest core mixing into a valence orbital is  3.73D-05
 Range of M.O.s used for correlation:     5   137
 NBasis=   137 NAE=    16 NBE=    15 NFC=     4 NFV=     0
 NROrb=    133 NOA=    12 NOB=    11 NVA=   121 NVB=   122

[...]
     34 -0.172316D-02 -0.792800D-02 -0.898898D-03  0.836468D-02 -0.103338D-01
     35  0.689823D-02  0.598946D-02 -0.752262D-02 -0.121995D-01  0.147782D-01
     36 -0.358857D-02 -0.699595D-02  0.991762D-02  0.111621D-01 -0.784898D-02
               21            22            23            24            25 
     21  0.415422D-01
     22 -0.454318D-02  0.215884D-01
     23 -0.126173D-01  0.225832D-02  0.187201D-01
     24 -0.307402D-02 -0.602804D-03  0.229753D-03  0.184778D+00
     25  0.180477D-02  0.709685D-02  0.326176D-02 -0.139347D-02  0.163951D-01
     26  0.731616D-02 -0.929576D-03 -0.330685D-02 -0.225687D-02  0.974337D-02
     27 -0.695869D-02  0.108836D-01  0.681966D-02 -0.233038D-02  0.381194D-02
     28 -0.144731D-02  0.285720D-02  0.251043D-03 -0.319378D-02 -0.283975D-02
     29 -0.554381D-02 -0.135340D-02  0.131930D-02 -0.759828D-03  0.687075D-03
     30 -0.395301D-02  0.286434D-02  0.227140D-02  0.217781D-02  0.101406D-02
     31 -0.169599D-02 -0.316988D-02 -0.119070D-02 -0.147730D-02 -0.202385D-02
     32 -0.105183D-03  0.104786D-02 -0.238609D-03  0.146034D-02 -0.169686D-02
     33  0.155009D-02 -0.219663D-03 -0.221056D-02 -0.252762D-02  0.310761D-02
     34  0.130658D-02  0.359901D-02  0.873877D-02 -0.133477D-02  0.697544D-02
     35 -0.140160D-01  0.501893D-02 -0.114991D-02  0.138474D-02 -0.512211D-02
     36  0.129717D-01 -0.779394D-02 -0.489527D-02 -0.228542D-02 -0.155977D-02
               26            27            28            29            30 
     26  0.137507D-01
     27 -0.308970D-02  0.187915D-01
     28  0.917659D-03  0.118899D-01  0.156473D-01
     29  0.757804D-05  0.151307D-02  0.833578D-03  0.119817D-01
     30 -0.169188D-05 -0.229502D-02 -0.331077D-02  0.697871D-02  0.200396D-01
     31  0.229643D-04  0.823621D-03  0.287043D-02 -0.116565D-02 -0.489037D-02
     32  0.136944D-04 -0.298447D-02 -0.127392D-02 -0.616862D-02  0.817052D-02
     33  0.276993D-02  0.217266D-02  0.183498D-02  0.212010D-02  0.963674D-03
     34 -0.191487D-02  0.720746D-02 -0.168286D-02  0.150321D-02  0.160233D-02
     35 -0.952832D-03 -0.360766D-02  0.561624D-03 -0.172320D-03 -0.372397D-02
     36  0.387730D-02 -0.229219D-02  0.314488D-02 -0.361129D-03  0.114991D-02
               31            32            33            34            35 
     31  0.135273D-01
     32  0.980262D-02  0.241418D-01
     33  0.193467D-02  0.778236D-03  0.129129D-01
     34 -0.187197D-02 -0.177285D-02  0.397134D-02  0.131477D-01
     35  0.212486D-02 -0.142679D-02 -0.268033D-02 -0.795735D-02  0.796230D-02
     36  0.636313D-03  0.214735D-02  0.218354D-02 -0.833478D-03  0.995809D-04
               36 
     36  0.488766D-02
 Leave Link  716 at Tue Nov  3 03:24:21 2009, MaxMem= 1258291200 cpu:       0.8
 (Enter /home/g09/l103.exe)

 GradGradGradGradGradGradGradGradGradGradGradGradGradGradGradGradGradGrad
 Berny optimization.
 Internal  Forces:  Max     0.000000193 RMS     0.000000067
 Search for a saddle point.
 Step number   1 out of a maximum of    2
 All quantities printed in internal units (Hartrees-Bohrs-Radians)
 Swaping is turned off.
 Second derivative matrix not updated -- analytic derivatives used.
     Eigenvalues ---   -0.16096   0.00192   0.00991   0.01497   0.02535
     Eigenvalues ---    0.02824   0.03407   0.05664   0.06261   0.07553
     Eigenvalues ---    0.11747   0.15185   0.17195   0.20520   0.23468
     Eigenvalues ---    0.27529   0.35367   0.35797   0.36489   0.39408
     Eigenvalues ---    0.523011000.000001000.000001000.000001000.00000
     Eigenvalues --- 1000.000001000.000001000.000001000.000001000.00000
     Eigenvalues --- 1000.000001000.000001000.000001000.000001000.00000
     Eigenvalues --- 1000.00000
 Eigenvectors required to have negative eigenvalues:
                          R9        R6        A9        A6        D12
   1                    0.60647  -0.56579  -0.22625   0.20926   0.19352
                          A11       A13       D11       D1        D6
   1                   -0.17929   0.13923  -0.13081  -0.12097  -0.11440
 Angle between quadratic step and forces=  73.78 degrees.
 Linear search not attempted -- option 19 set.
 Iteration  1 RMS(Cart)=  0.00000068 RMS(Int)=  0.00000000
 Variable       Old X    -DE/DX   Delta X   Delta X   Delta X     New X
                                 (Linear)    (Quad)   (Total)
    R1        2.07322   0.00000   0.00000   0.00000   0.00000   2.07322
    R2        2.06853   0.00000   0.00000   0.00000   0.00000   2.06853
    R3        2.84150   0.00000   0.00000   0.00000   0.00000   2.84150
    R4        2.88479   0.00000   0.00000   0.00000   0.00000   2.88479
    R5        2.78110   0.00000   0.00000   0.00000   0.00000   2.78110
    R6        2.45291   0.00000   0.00000   0.00000   0.00000   2.45291
    R7        2.61351   0.00000   0.00000   0.00000   0.00000   2.61351
    R8        2.06424   0.00000   0.00000   0.00000   0.00000   2.06424
    R9        2.53080   0.00000   0.00000   0.00000   0.00000   2.53080
   R10        1.82650   0.00000   0.00000   0.00000   0.00000   1.82650
    A1        2.00870   0.00000   0.00000   0.00000   0.00000   2.00870
    A2        1.97806   0.00000   0.00000   0.00000   0.00000   1.97806
    A3        1.98886   0.00000   0.00000   0.00000   0.00000   1.98886
    A4        2.13944   0.00000   0.00000   0.00000   0.00000   2.13944
    A5        2.12737   0.00000   0.00000   0.00000   0.00000   2.12737
    A6        1.66703   0.00000   0.00000   0.00000   0.00000   1.66703
    A7        2.25732   0.00000   0.00000   0.00000   0.00000   2.25732
    A8        2.33173   0.00000   0.00000   0.00000   0.00000   2.33173
    A9        2.35094   0.00000   0.00000   0.00000   0.00000   2.35094
   A10        2.34865   0.00000   0.00000   0.00000   0.00000   2.34866
   A11        1.61898   0.00000   0.00000   0.00000   0.00000   1.61898
   A12        2.32842   0.00000   0.00000   0.00000   0.00000   2.32842
   A13        2.29870   0.00000   0.00000   0.00000   0.00000   2.29870
   A14        1.89202   0.00000   0.00000   0.00000   0.00000   1.89202
    D1       -2.66765   0.00000   0.00000   0.00000   0.00000  -2.66765
    D2        0.35335   0.00000   0.00000   0.00000   0.00000   0.35335
    D3        1.07674   0.00000   0.00000   0.00000   0.00000   1.07674
    D4       -2.18544   0.00000   0.00000   0.00000   0.00000  -2.18544
    D5       -0.34261   0.00000   0.00000   0.00000   0.00000  -0.34261
    D6        2.61135   0.00000   0.00000   0.00000   0.00000   2.61135
    D7        2.19467   0.00000   0.00000   0.00000   0.00000   2.19467
    D8       -1.13455   0.00000   0.00000   0.00000   0.00000  -1.13455
    D9        0.10527   0.00000   0.00000   0.00000   0.00000   0.10527
   D10       -1.92385   0.00000   0.00000   0.00000   0.00000  -1.92385
   D11       -0.41841   0.00000   0.00000   0.00000   0.00000  -0.41841
   D12        1.04847   0.00000   0.00000   0.00000   0.00000   1.04848
         Item               Value     Threshold  Converged?
 Maximum Force            0.000000     0.000002     YES
 RMS     Force            0.000000     0.000001     YES
 Maximum Displacement     0.000002     0.000006     YES
 RMS     Displacement     0.000001     0.000004     YES
 Predicted change in Energy=-2.394593D-13
 Optimization completed.
    -- Stationary point found.
                           ----------------------------
                           !   Optimized Parameters   !
                           ! (Angstroms and Degrees)  !
 --------------------------                            --------------------------
 ! Name  Definition              Value          Derivative Info.                !
 --------------------------------------------------------------------------------
 ! R1    R(1,2)                  1.0971         -DE/DX =    0.0                 !
 ! R2    R(1,3)                  1.0946         -DE/DX =    0.0                 !
 ! R3    R(1,4)                  1.5037         -DE/DX =    0.0                 !
 ! R4    R(1,5)                  1.5266         -DE/DX =    0.0                 !
 ! R5    R(4,5)                  1.4717         -DE/DX =    0.0                 !
 ! R6    R(4,7)                  1.298          -DE/DX =    0.0                 !
 ! R7    R(4,8)                  1.383          -DE/DX =    0.0                 !
 ! R8    R(5,6)                  1.0923         -DE/DX =    0.0                 !
 ! R9    R(5,7)                  1.3392         -DE/DX =    0.0                 !
 ! R10   R(8,9)                  0.9665         -DE/DX =    0.0                 !
 ! A1    A(2,1,3)              115.0901         -DE/DX =    0.0                 !
 ! A2    A(2,1,4)              113.3347         -DE/DX =    0.0                 !
 ! A3    A(2,1,5)              113.9532         -DE/DX =    0.0                 !
 ! A4    A(3,1,4)              122.5812         -DE/DX =    0.0                 !
 ! A5    A(3,1,5)              121.8895         -DE/DX =    0.0                 !
 ! A6    A(1,4,7)               95.5136         -DE/DX =    0.0                 !
 ! A7    A(1,4,8)              129.3348         -DE/DX =    0.0                 !
 ! A8    A(5,4,8)              133.5985         -DE/DX =    0.0                 !
 ! A9    A(7,4,8)              134.6991         -DE/DX =    0.0                 !
 ! A10   A(1,5,6)              134.568          -DE/DX =    0.0                 !
 ! A11   A(1,5,7)               92.7606         -DE/DX =    0.0                 !
 ! A12   A(4,5,6)              133.4087         -DE/DX =    0.0                 !
 ! A13   A(6,5,7)              131.7057         -DE/DX =    0.0                 !
 ! A14   A(4,8,9)              108.4048         -DE/DX =    0.0                 !
 ! D1    D(2,1,4,7)           -152.845          -DE/DX =    0.0                 !
 ! D2    D(2,1,4,8)             20.2456         -DE/DX =    0.0                 !
 ! D3    D(3,1,4,7)             61.6929         -DE/DX =    0.0                 !
 ! D4    D(3,1,4,8)           -125.2164         -DE/DX =    0.0                 !
 ! D5    D(2,1,5,6)            -19.6301         -DE/DX =    0.0                 !
 ! D6    D(2,1,5,7)            149.6195         -DE/DX =    0.0                 !
 ! D7    D(3,1,5,6)            125.7455         -DE/DX =    0.0                 !
 ! D8    D(3,1,5,7)            -65.0048         -DE/DX =    0.0                 !
 ! D9    D(8,4,5,6)              6.0314         -DE/DX =    0.0                 !
 ! D10   D(1,4,8,9)           -110.2286         -DE/DX =    0.0                 !
 ! D11   D(5,4,8,9)            -23.9733         -DE/DX =    0.0                 !
 ! D12   D(7,4,8,9)             60.0732         -DE/DX =    0.0                 !
 --------------------------------------------------------------------------------
 GradGradGradGradGradGradGradGradGradGradGradGradGradGradGradGradGradGrad

 Leave Link  103 at Tue Nov  3 03:24:21 2009, MaxMem= 1258291200 cpu:       0.1
 (Enter /home/g09/l9999.exe)
 1\1\ UCHICAGO-N001\Freq\UCCSD-FC\Aug-CC-pVDZ\C3H5O1(2)\BENJFITZ\03-Nov
 -2009\0\\#P Geom=AllCheck Guess=TCheck SCRF=Check GenChk UCCSD(FC)/Aug
 -CC-pVDZ Freq\\cyclopropanol w/ radical at OH C, geom from opt uccsd a
 vdz vtight p2, vibs from qst2 ump2 avdz tight p\\0,2\C,0.0002253099,0.
 0004250451,-0.0005907329\H,0.000595565,-0.001190856,1.0965101655\H,0.9
 914026005,0.0019009674,-0.4650904709\C,-1.1735048092,0.7286726639,-0.5
 947245227\C,-1.1800648286,-0.7427724693,-0.6210584688\H,-1.8847921885,
 -1.4968198219,-0.2632932847\H,-1.1948250168,0.0495274867,-1.7006938387
 \O,-2.0003497658,1.6759371396,-0.0187635709\H,-2.8729679188,1.28102006
 59,0.1107909121\\Version=EM64L-G09RevA.02\HF=-191.1966107\MP2=-191.817
 3825\MP3=-191.8429723\MP4D=-191.8577502\MP4DQ=-191.8444618\PUHF=-191.2
 038415\PMP2-0=-191.8227936\PMP3-0=-191.8463745\MP4SDQ=-191.8511743\CCS
 D=-191.8521239\S2=0.802025\S2-1=0.775681\S2A=0.750531\RMSD=2.879e-09\R
 MSF=9.915e-08\ZeroPoint=0.0670634\Thermal=0.071562\Dipole=-0.4555196,-
 0.4600379,0.1606567\DipoleDeriv=0.1664545,0.0347043,-0.0215912,0.09685
 3,0.097721,0.0042386,-0.1353466,0.0141258,0.093169,0.0054437,-0.003746
 8,0.0082423,-0.0142583,0.1571449,-0.013463,-0.0207838,-0.0040117,-0.08
 63602,-0.1467115,-0.007141,-0.00697,-0.0086841,0.0468764,0.0012008,0.0
 412426,-0.0050543,0.0201693,0.4565505,-0.4399976,-0.0887757,-0.4044078
 ,0.5212409,0.4970059,-0.1252791,0.7155659,0.1868626,-0.163332,-0.00063
 25,0.0644079,0.0417564,-0.4499742,-0.3692027,0.1213821,-0.4521035,-0.1
 797399,0.0003731,-0.1290696,-0.0091739,-0.0585334,0.0965298,0.0590892,
 0.0089253,0.1487131,0.1108748,0.0751211,-0.014011,-0.0460503,0.0424218
 ,0.0511477,-0.0355394,-0.0878726,0.0023379,0.0166314,-0.6215492,0.6307
 949,0.1031196,0.4007915,-0.7116983,-0.1477686,0.1870369,-0.356285,-0.4
 420714,0.2276362,-0.0707842,-0.0032732,-0.0959259,0.1908617,0.0045512,
 0.0107038,-0.0629348,0.2804929\Quadrupole=4.7901538,-4.2216976,-0.5684
 562,1.318679,-0.1607376,-0.2961113\QuadrupoleDeriv=1.0236788,-0.566107
 2,-0.4575715,-0.11212,-0.5821349,0.1056892,-0.0557297,0.0246533,0.0310
 764,-0.1228752,0.0137099,-0.59777,-0.6884401,-0.8463657,1.5348058,0.01
 22529,0.6711683,-0.0464337,-0.0237308,-0.0650574,0.0887882,0.0220724,0
 .7401707,0.027404,0.0505173,-0.0095982,-0.0409191,-0.0412938,0.0327892
 ,0.4721715,0.0012347,-0.1888939,0.1876591,0.0155829,-0.0175926,0.01289
 63,0.1917672,-0.0192507,-0.1725165,-0.017846,0.1576406,0.0300869,0.005
 2858,-0.0213648,0.016079,0.7041302,0.023473,-0.1160034,0.5028458,0.138
 4512,-0.641297,0.0273824,0.3973142,0.0161346,-1.2952489,-0.2948697,1.5
 901186,2.6630948,0.4139062,-0.1499708,1.4973123,1.0695602,-2.5668725,-
 2.3940569,-0.9999449,-0.5995694,0.7662057,0.6231812,-1.3893869,-2.2820
 178,-0.8913347,-0.8188008,0.3276781,-0.361462,0.033784,-0.4919754,0.24
 8263,0.0978856,-1.0661711,-0.2436544,1.3098255,0.6545528,0.9598983,0.5
 41926,-0.3344463,0.3489885,-0.0145422,1.2497191,0.1817514,1.466042,-0.
 6317286,0.5215329,0.1101957,-0.0425138,-0.0181995,0.0802737,0.7020447,
 -0.8183641,0.1163194,-0.3095606,-0.131098,-0.1888749,-0.0272387,-0.170
 5717,0.1978104,-0.6471322,-0.5854214,-0.6133945,-0.3962855,0.363198,0.
 0330875,0.0135972,-0.7572033,0.0894284,-0.0596701,-0.0466326,0.1063027
 ,-0.2018114,0.1140893,0.2457137,0.362256,0.2131803,-0.5754364,0.067882
 1,-0.0241934,-0.1084201,2.0875328,-0.0071752,-2.0803576,-3.2755354,-0.
 0142053,-0.3131546,-1.1888596,-0.7198801,1.9087397,3.0902975,-0.009461
 5,0.3212168,-0.4364738,-0.0492953,0.4857691,1.3153044,1.7969294,-1.163
 5433,-1.8911856,0.7327216,1.158464,0.7808978,-0.0274796,0.0316196,0.42
 23003,0.1519521,-0.5742525,-1.8350495,-0.003592,0.0830319,-0.2532002,-
 0.1756746,0.4288748,0.2404111,-1.9842573,0.7936261\PG=C01 [X(C3H5O1)]\
 NImag=1\\0.65296050,-0.01285970,0.19658066,-0.01174597,-0.00317245,0.6
 2214155,-0.05370873,0.00113972,0.01068526,0.05561857,0.00057757,-0.031
 25741,0.00001466,0.00031900,0.03041542,0.00400973,0.00090661,-0.331931
 36,0.00091750,-0.00081421,0.35485151,-0.27663098,0.00118821,0.11930152
 ,0.00338252,0.00009728,-0.00210541,0.29614440,0.00119022,-0.03929152,0
 .00140109,-0.00026371,0.00011156,0.00035302,0.00007512,0.03757534,0.12
 023152,0.00058770,-0.11086393,0.02616071,-0.00009613,-0.00895513,-0.11
 974387,0.00030736,0.11130322,-0.15871820,0.07688881,-0.06778880,-0.000
 29992,0.00498774,0.00028059,-0.01032153,0.01035255,-0.01197838,0.41274
 589,0.10608905,-0.05965182,0.02855313,-0.00698178,-0.00153329,-0.00540
 415,-0.00321871,0.00155205,-0.00071113,-0.18705657,0.49857062,-0.05863
 728,0.01506296,-0.09966060,-0.01724175,0.02365368,-0.00869114,0.001332
 21,-0.01165608,0.00228277,-0.00689550,0.00720731,0.20214355,-0.1437535
 4,-0.06598406,-0.05059615,-0.00175542,-0.00474670,-0.00051325,-0.01161
 196,-0.01443119,-0.01340352,-0.04569948,-0.05118445,0.02696693,0.37152
 534,-0.10912824,-0.06068443,-0.02801469,0.00703870,-0.00049407,0.00496
 210,0.00030705,0.00068571,-0.00126402,0.01782894,-0.33445603,-0.059276
 63,0.25400392,0.53427447,-0.04836437,-0.00754812,-0.07884308,-0.017784
 61,-0.02298774,-0.00621175,0.00034102,0.00997966,0.00388632,0.02511625
 ,0.08892235,0.10699355,-0.01534378,-0.02229689,0.10659670,-0.00350595,
 -0.00434757,0.01384684,0.00085529,0.00158333,-0.00008321,-0.00061625,-
 0.00356940,-0.00036258,0.00658660,0.00972083,-0.00503756,-0.17040999,-
 0.15332802,0.05501656,0.16714260,0.00605368,-0.00479840,-0.00201332,-0
 .00046411,-0.00098661,0.00003705,0.00135396,0.00282129,0.00043760,-0.0
 2285409,-0.01451862,0.00381529,-0.14474808,-0.18027280,0.07990188,0.15
 385587,0.18708535,-0.00735119,-0.01155345,0.00696941,0.00044138,0.0016
 7224,0.00029932,0.00015386,-0.00135627,-0.00031618,-0.00386914,0.00381
 740,-0.00458897,0.07298206,0.08886474,-0.06453761,-0.06565112,-0.07794
 816,0.05245492,-0.00526910,-0.00165571,-0.03797960,-0.00546785,0.00049
 408,-0.00239912,0.00106309,0.00034797,-0.00004071,-0.01466715,0.020351
 78,-0.00016245,-0.01166579,-0.02326106,0.00353532,-0.00151836,0.004188
 33,0.00539316,0.04184053,0.00283634,0.00914124,0.00559554,-0.00054923,
 0.00348822,-0.00044726,-0.00007846,-0.00442622,0.00005139,-0.00238607,
 0.08105420,0.09308666,-0.00022859,0.05599168,-0.10932035,-0.00080722,0
 .00635257,-0.00633572,-0.00169100,-0.15010053,0.00621704,-0.00028484,-
 0.01696925,-0.00396685,0.00025026,-0.00091412,0.00000651,-0.00007592,0
 .00193128,-0.01882423,-0.03140837,-0.09913481,-0.01447574,0.03090047,-
 0.07030047,0.00235421,-0.00297222,0.00366263,0.02263387,0.00718969,0.1
 7913982,-0.01094400,0.00753825,0.02036434,0.00132825,-0.00312198,-0.00
 009584,-0.00146839,0.00519009,-0.00089286,-0.16216294,0.12093446,0.056
 36658,0.00715240,0.00486706,0.00141746,0.00242345,0.00115114,-0.002507
 36,-0.00398320,0.00420316,0.00643698,0.58172757,0.00164762,-0.00916780
 ,0.00010831,-0.00011668,-0.00013833,0.00032154,-0.00012459,0.00223318,
 0.00038337,0.06432013,-0.17552103,-0.06522718,0.02807927,-0.01815653,-
 0.01699384,-0.00224040,0.00529778,0.00250332,0.00081391,-0.00134112,-0
 .00313231,0.07161950,0.32488716,-0.00107296,0.00328666,0.00929966,0.00
 110760,-0.00186355,0.00159025,0.00100563,0.00116104,0.00080469,0.06368
 915,-0.09311492,-0.09465612,-0.00433836,-0.01235487,0.00333747,-0.0002
 5575,-0.00103355,0.00574780,0.00678135,0.01149439,0.00426608,-0.135019
 22,0.07291066,0.08268415,-0.00042846,-0.00191116,0.00391348,0.00004858
 ,-0.00019046,-0.00001050,0.00005746,0.00110872,0.00002975,-0.02746064,
 -0.00865800,0.00329430,0.00621800,0.00167288,-0.00391946,-0.00095909,0
 .00146022,0.00040867,-0.00033112,-0.00128696,-0.00038387,-0.41407254,-
 0.16400152,0.06809987,0.43692449,0.00359046,-0.00086689,-0.00246894,-0
 .00012246,0.00039487,0.00008413,0.00039986,-0.00126289,0.00030458,0.03
 792486,0.00451470,-0.00665487,-0.00075853,0.00312453,0.00032802,-0.000
 86974,-0.00098219,0.00033322,0.00041003,-0.00018392,-0.00046443,-0.212
 38376,-0.12809330,0.01951559,0.17180826,0.12335480,-0.00328814,0.00270
 920,-0.00014162,-0.00031888,0.00016754,-0.00003722,-0.00029169,-0.0001
 1127,-0.00007300,0.02028017,0.00211230,-0.00473535,-0.00128483,-0.0015
 3350,-0.00087879,0.00017636,-0.00022825,0.00031259,0.00224096,-0.00126
 726,-0.00168125,0.05392366,0.00912858,-0.01307653,-0.07143451,-0.01097
 747,0.02031350\\0.00000026,0.00000002,0.00000004,-0.00000001,-0.000000
 02,-0.00000001,-0.00000001,-0.00000003,0.00000004,0.00000006,-0.000000
 03,-0.00000014,-0.00000016,-0.00000013,0.00000012,0.00000004,0.0000000
 5,0.,-0.00000002,0.00000019,-0.00000006,-0.00000017,-0.00000016,-0.000
 00001,0.00000001,0.00000012,0.00000003\\\@


 There are more things in heaven and earth, Horatio,
 than are dreamt of in your philosophy.
                   -- Hamlet, Act I, Scene 5
 The chemist is a guest at the physicist's table and
 frequently dines well.
                   -- Richard Bersohn
 Job cpu time: 13 days  6 hours  1 minutes 52.2 seconds.
 File lengths (MBytes):  RWF=   4776 Int=      0 D2E=      0 Chk=     42 Scr=      1
 Normal termination of Gaussian 09 at Tue Nov  3 03:24:22 2009.
