[Molden Format]
[Title]
                                                                                
[Atoms] AU
 c     1    6 -.12795847981101E+01 -.97661648325429E+00 -.23657630908143E+01
 c     2    6 -.21389493998520E+01 0.61566557723072E+00 -.12265666276112E+00
 c     3    6 0.21386190832963E+01 0.61588697881612E+00 -.12425251479080E+00
 c     4    6 0.12785121088381E+01 -.97642946018512E+00 -.23665789313767E+01
 h     5    1 -.25416591130743E+01 -.20975014603433E+01 -.35865512453353E+01
 h     6    1 0.25396389733331E+01 -.20968890691365E+01 -.35882289905077E+01
 c     7    6 -.21649755703000E-03 0.26197091169972E+01 -.51416740540760E-01
 h     8    1 0.16277511349000E-03 0.37879808654797E+01 0.16994450886871E+01
 h     9    1 -.98106314160000E-03 0.38720173173619E+01 -.17374419558137E+01
 c    10    6 -.14765085965089E+01 -.96163284684814E+00 0.23091575706021E+01
 h    11    1 -.22426588943263E+01 -.13129018938940E-01 0.40210730306663E+01
 h    12    1 -.22995074298896E+01 -.28901653202954E+01 0.22355615125874E+01
 c    13    6 0.14780481970480E+01 -.96138717606935E+00 0.23079332372368E+01
 h    14    1 0.22454448640055E+01 -.12922711578190E-01 0.40193702923764E+01
 h    15    1 0.23012016475278E+01 -.28897771793222E+01 0.22338372157226E+01
 h    16    1 -.41122282360106E+01 0.13175663701193E+01 -.18308385909160E+00
 h    17    1 0.41115386129982E+01 0.13183925824435E+01 -.18572233718061E+00
[GTO]
    1 0
 s    5 1.00
 0.12384016938000E+04 0.54568832082000E-02
 0.18629004992000E+03 0.40638409211000E-01
 0.42251176346000E+02 0.18025593888000E+00
 0.11676557932000E+02 0.46315121755000E+00
 0.35930506482000E+01 0.44087173314000E+00
 s    1 1.00
 0.40245147363000E+00 0.10000000000000E+01
 s    1 1.00
 0.13090182668000E+00 0.10000000000000E+01
 p    3 1.00
 0.94680970621000E+01 0.38387871728000E-01
 0.20103545142000E+01 0.21117025112000E+00
 0.54771004707000E+00 0.51328172114000E+00
 p    1 1.00
 0.15268613795000E+00 0.10000000000000E+01
 d    1 1.00
 0.80000000000000E+00 0.10000000000000E+01
 
    2 0
 s    5 1.00
 0.12384016938000E+04 0.54568832082000E-02
 0.18629004992000E+03 0.40638409211000E-01
 0.42251176346000E+02 0.18025593888000E+00
 0.11676557932000E+02 0.46315121755000E+00
 0.35930506482000E+01 0.44087173314000E+00
 s    1 1.00
 0.40245147363000E+00 0.10000000000000E+01
 s    1 1.00
 0.13090182668000E+00 0.10000000000000E+01
 p    3 1.00
 0.94680970621000E+01 0.38387871728000E-01
 0.20103545142000E+01 0.21117025112000E+00
 0.54771004707000E+00 0.51328172114000E+00
 p    1 1.00
 0.15268613795000E+00 0.10000000000000E+01
 d    1 1.00
 0.80000000000000E+00 0.10000000000000E+01
 
    3 0
 s    5 1.00
 0.12384016938000E+04 0.54568832082000E-02
 0.18629004992000E+03 0.40638409211000E-01
 0.42251176346000E+02 0.18025593888000E+00
 0.11676557932000E+02 0.46315121755000E+00
 0.35930506482000E+01 0.44087173314000E+00
 s    1 1.00
 0.40245147363000E+00 0.10000000000000E+01
 s    1 1.00
 0.13090182668000E+00 0.10000000000000E+01
 p    3 1.00
 0.94680970621000E+01 0.38387871728000E-01
 0.20103545142000E+01 0.21117025112000E+00
 0.54771004707000E+00 0.51328172114000E+00
 p    1 1.00
 0.15268613795000E+00 0.10000000000000E+01
 d    1 1.00
 0.80000000000000E+00 0.10000000000000E+01
 
    4 0
 s    5 1.00
 0.12384016938000E+04 0.54568832082000E-02
 0.18629004992000E+03 0.40638409211000E-01
 0.42251176346000E+02 0.18025593888000E+00
 0.11676557932000E+02 0.46315121755000E+00
 0.35930506482000E+01 0.44087173314000E+00
 s    1 1.00
 0.40245147363000E+00 0.10000000000000E+01
 s    1 1.00
 0.13090182668000E+00 0.10000000000000E+01
 p    3 1.00
 0.94680970621000E+01 0.38387871728000E-01
 0.20103545142000E+01 0.21117025112000E+00
 0.54771004707000E+00 0.51328172114000E+00
 p    1 1.00
 0.15268613795000E+00 0.10000000000000E+01
 d    1 1.00
 0.80000000000000E+00 0.10000000000000E+01
 
    5 0
 s    3 1.00
 0.13010701000000E+02 0.19682158000000E-01
 0.19622572000000E+01 0.13796524000000E+00
 0.44453796000000E+00 0.47831935000000E+00
 s    1 1.00
 0.12194962000000E+00 0.10000000000000E+01
 
    6 0
 s    3 1.00
 0.13010701000000E+02 0.19682158000000E-01
 0.19622572000000E+01 0.13796524000000E+00
 0.44453796000000E+00 0.47831935000000E+00
 s    1 1.00
 0.12194962000000E+00 0.10000000000000E+01
 
    7 0
 s    5 1.00
 0.12384016938000E+04 0.54568832082000E-02
 0.18629004992000E+03 0.40638409211000E-01
 0.42251176346000E+02 0.18025593888000E+00
 0.11676557932000E+02 0.46315121755000E+00
 0.35930506482000E+01 0.44087173314000E+00
 s    1 1.00
 0.40245147363000E+00 0.10000000000000E+01
 s    1 1.00
 0.13090182668000E+00 0.10000000000000E+01
 p    3 1.00
 0.94680970621000E+01 0.38387871728000E-01
 0.20103545142000E+01 0.21117025112000E+00
 0.54771004707000E+00 0.51328172114000E+00
 p    1 1.00
 0.15268613795000E+00 0.10000000000000E+01
 d    1 1.00
 0.80000000000000E+00 0.10000000000000E+01
 
    8 0
 s    3 1.00
 0.13010701000000E+02 0.19682158000000E-01
 0.19622572000000E+01 0.13796524000000E+00
 0.44453796000000E+00 0.47831935000000E+00
 s    1 1.00
 0.12194962000000E+00 0.10000000000000E+01
 
    9 0
 s    3 1.00
 0.13010701000000E+02 0.19682158000000E-01
 0.19622572000000E+01 0.13796524000000E+00
 0.44453796000000E+00 0.47831935000000E+00
 s    1 1.00
 0.12194962000000E+00 0.10000000000000E+01
 
   10 0
 s    5 1.00
 0.12384016938000E+04 0.54568832082000E-02
 0.18629004992000E+03 0.40638409211000E-01
 0.42251176346000E+02 0.18025593888000E+00
 0.11676557932000E+02 0.46315121755000E+00
 0.35930506482000E+01 0.44087173314000E+00
 s    1 1.00
 0.40245147363000E+00 0.10000000000000E+01
 s    1 1.00
 0.13090182668000E+00 0.10000000000000E+01
 p    3 1.00
 0.94680970621000E+01 0.38387871728000E-01
 0.20103545142000E+01 0.21117025112000E+00
 0.54771004707000E+00 0.51328172114000E+00
 p    1 1.00
 0.15268613795000E+00 0.10000000000000E+01
 d    1 1.00
 0.80000000000000E+00 0.10000000000000E+01
 
   11 0
 s    3 1.00
 0.13010701000000E+02 0.19682158000000E-01
 0.19622572000000E+01 0.13796524000000E+00
 0.44453796000000E+00 0.47831935000000E+00
 s    1 1.00
 0.12194962000000E+00 0.10000000000000E+01
 
   12 0
 s    3 1.00
 0.13010701000000E+02 0.19682158000000E-01
 0.19622572000000E+01 0.13796524000000E+00
 0.44453796000000E+00 0.47831935000000E+00
 s    1 1.00
 0.12194962000000E+00 0.10000000000000E+01
 
   13 0
 s    5 1.00
 0.12384016938000E+04 0.54568832082000E-02
 0.18629004992000E+03 0.40638409211000E-01
 0.42251176346000E+02 0.18025593888000E+00
 0.11676557932000E+02 0.46315121755000E+00
 0.35930506482000E+01 0.44087173314000E+00
 s    1 1.00
 0.40245147363000E+00 0.10000000000000E+01
 s    1 1.00
 0.13090182668000E+00 0.10000000000000E+01
 p    3 1.00
 0.94680970621000E+01 0.38387871728000E-01
 0.20103545142000E+01 0.21117025112000E+00
 0.54771004707000E+00 0.51328172114000E+00
 p    1 1.00
 0.15268613795000E+00 0.10000000000000E+01
 d    1 1.00
 0.80000000000000E+00 0.10000000000000E+01
 
   14 0
 s    3 1.00
 0.13010701000000E+02 0.19682158000000E-01
 0.19622572000000E+01 0.13796524000000E+00
 0.44453796000000E+00 0.47831935000000E+00
 s    1 1.00
 0.12194962000000E+00 0.10000000000000E+01
 
   15 0
 s    3 1.00
 0.13010701000000E+02 0.19682158000000E-01
 0.19622572000000E+01 0.13796524000000E+00
 0.44453796000000E+00 0.47831935000000E+00
 s    1 1.00
 0.12194962000000E+00 0.10000000000000E+01
 
   16 0
 s    3 1.00
 0.13010701000000E+02 0.19682158000000E-01
 0.19622572000000E+01 0.13796524000000E+00
 0.44453796000000E+00 0.47831935000000E+00
 s    1 1.00
 0.12194962000000E+00 0.10000000000000E+01
 
   17 0
 s    3 1.00
 0.13010701000000E+02 0.19682158000000E-01
 0.19622572000000E+01 0.13796524000000E+00
 0.44453796000000E+00 0.47831935000000E+00
 s    1 1.00
 0.12194962000000E+00 0.10000000000000E+01
 
[MO]
 Sym=    1a   
 Ene= -.99175399906607E+01
 Spin= Alpha
 Occup= 2.000000
    1 0.94523378658893E-03
    2 -.14898773471962E-03
    3 -.27574513935054E-01
    4 -.83674173829598E-04
    5 0.15095976706607E-03
    6 0.13004135805429E-03
    7 -.29130458794577E-02
    8 -.54211501298025E-02
    9 -.82310402837017E-02
   10 -.51415043711792E-04
   11 -.44589120210933E-04
   12 0.96004163922725E-04
   13 -.80345114990173E-04
   14 0.14549624445746E-03
   15 0.45000253967220E-03
   16 -.25664416270641E+00
   17 -.18968643541529E-01
   18 0.55128141180410E-01
   19 -.63670937507146E-03
   20 0.11918100271889E-03
   21 -.29845761526765E-04
   22 0.18966088028428E-01
   23 -.84399398999450E-02
   24 0.11836218741214E-02
   25 0.34416158285121E-03
   26 -.24260328654666E-03
   27 -.10155829630454E-03
   28 -.27967838867940E-03
   29 0.50995473973150E-04
   30 -.49403499666698E-04
   31 0.95361492865582E+00
   32 0.58050401326839E-01
   33 -.11376152750010E+00
   34 -.23441361867171E-02
   35 -.63500748277211E-03
   36 0.47762032815650E-04
   37 0.28613498543113E-01
   38 0.10363205150777E-01
   39 -.19587791916712E-02
   40 0.48933260194092E-04
   41 0.31527255285232E-04
   42 -.80460515479323E-04
   43 0.14699456429144E-03
   44 0.48799473856016E-04
   45 0.12764241556235E-03
   46 0.25362864903376E-02
   47 0.13233679901132E-03
   48 0.40547972997408E-01
   49 -.57543005051343E-03
   50 -.55701698166243E-03
   51 -.46774547245218E-03
   52 -.19820026581277E-02
   53 0.85310784142466E-02
   54 0.13138387154634E-01
   55 0.23636272091030E-03
   56 -.22823368792369E-04
   57 -.21353935211793E-03
   58 -.58624231271962E-03
   59 -.60119997775454E-03
   60 -.10632950149025E-02
   61 -.29507435389172E-03
   62 0.32486785653077E-03
   63 0.15401246036823E-03
   64 -.26308614018319E-03
   65 0.35691553562329E-04
   66 -.58654309651741E-03
   67 0.16746589538030E-01
   68 -.24198537290499E-03
   69 0.28240233085108E-03
   70 0.25532054978615E-04
   71 0.11780073175978E-01
   72 -.40344934986286E-02
   73 0.99193311984738E-05
   74 -.26727108983249E-03
   75 -.10222601964145E-03
   76 0.36949710947394E-03
   77 0.11835565706283E-02
   78 0.96729373098638E-04
   79 -.45398510243728E-04
   80 -.44050221753832E-03
   81 -.88705723951335E-03
   82 -.39268014456638E-03
   83 -.79762851312692E-03
   84 0.17829183577837E-02
   85 0.11480483275133E-02
   86 -.31465654842650E-01
   87 -.49340638396752E-04
   88 0.13606836741289E-03
   89 -.32067193696033E-04
   90 -.47536262536490E-02
   91 -.50408334700579E-02
   92 0.73468844281681E-02
   93 -.46192655865437E-04
   94 -.48348177824460E-04
   95 0.94540833689896E-04
   96 -.55474524993333E-04
   97 -.10312199950432E-03
   98 -.38307529449824E-03
   99 0.76280296276134E-03
  100 0.10851283083664E-02
  101 0.58519810872466E-03
  102 0.78531973735036E-03
  103 -.10962769115868E-02
  104 -.19190258771279E-02
  105 0.46577377108392E-01
  106 -.41724233117523E-03
  107 -.30132260041584E-03
  108 0.25800730153959E-03
  109 -.36408595635996E-02
  110 0.75563026667391E-02
  111 -.12518870105026E-01
  112 0.23865970047715E-03
  113 0.32177426602965E-04
  114 -.27083712708011E-03
  115 -.53154454787915E-03
  116 0.64615733999409E-03
  117 0.10368889319452E-02
  118 -.11439668080200E-02
  119 -.15450329976173E-02
  120 -.10322882007218E-02
  121 -.21111898281723E-02
  122 0.12544079831258E-02
  123 0.72868614225375E-05
  124 -.29350077849168E-02
  125 0.74739211870541E-02
 Sym=    2a   
 Ene= -.99175383428470E+01
 Spin= Alpha
 Occup= 2.000000
    1 0.34604077774621E-02
    2 0.66443175826010E-04
    3 0.30869071919325E-01
    4 0.61601889385014E-03
    5 -.55540968737735E-03
    6 -.46479525445794E-03
    7 0.60706618892990E-03
    8 0.67144690882719E-02
    9 0.10408383443528E-01
   10 0.24367674761264E-03
   11 -.52180803663774E-04
   12 -.19149594394886E-03
   13 0.63021558109472E-03
   14 0.77888930760854E-03
   15 -.96808900033122E-03
   16 0.95366522965142E+00
   17 0.56108252636811E-01
   18 -.99516470566095E-01
   19 0.23408059081227E-02
   20 -.66440095887984E-03
   21 0.35979210705277E-04
   22 -.22079169994286E-01
   23 0.70751476751518E-02
   24 -.15530632570300E-02
   25 0.25654952333005E-03
   26 -.10440168890090E-03
   27 -.15214783442916E-03
   28 -.33180164892555E-03
   29 -.26600545012111E-04
   30 0.11848279272199E-03
   31 0.25682961453874E+00
   32 0.11764516502875E-01
   33 -.22782082550774E-02
   34 -.62445314451225E-03
   35 -.23068575731408E-03
   36 -.72290906882834E-05
   37 -.53191088923741E-02
   38 -.37492767231756E-02
   39 0.24409540580433E-03
   40 0.42622028633141E-03
   41 -.26212987214832E-03
   42 -.16409041418308E-03
   43 0.40869106294742E-03
   44 -.31698011171585E-04
   45 0.16639792883196E-04
   46 0.25613565311102E-02
   47 -.95848285726476E-04
   48 -.83590209908888E-02
   49 -.23664101442922E-03
   50 -.14874547880007E-03
   51 -.12138578025640E-03
   52 0.22164157155521E-02
   53 -.13215725681534E-02
   54 -.19009625001656E-02
   55 0.77588367523058E-04
   56 -.64781940362102E-04
   57 -.12806427160956E-04
   58 -.24663998284032E-03
   59 -.51650070579286E-03
   60 -.97007981140205E-04
   61 0.58989055883805E-05
   62 -.11675874866827E-03
   63 -.25297701346963E-03
   64 0.22048619834574E-03
   65 0.59407385273265E-04
   66 -.10196317014636E-02
   67 0.29082360834299E-01
   68 0.13934097342091E-03
   69 0.49064561971487E-03
   70 0.43949054847672E-04
   71 -.67830504894158E-02
   72 -.70079529231218E-02
   73 0.34891719408484E-04
   74 -.46403695256333E-03
   75 -.17779367459343E-03
   76 0.64183062715676E-03
   77 -.68152485344758E-03
   78 -.54410636659153E-04
   79 -.77761953796794E-04
   80 -.76575486878082E-03
   81 -.15419661233462E-02
   82 -.68139599646016E-03
   83 -.13836561892178E-02
   84 -.24019409486624E-03
   85 -.15530023857164E-02
   86 0.35584383234369E-01
   87 0.45396531306730E-03
   88 -.26910606689632E-03
   89 0.27903305761564E-03
   90 0.14380192481009E-02
   91 0.58121048229626E-02
   92 -.10214545081483E-01
   93 0.24835755630090E-03
   94 0.92361956872601E-05
   95 -.25759375198816E-03
   96 0.58350489454085E-03
   97 -.80814741720282E-03
   98 0.97572624921855E-03
   99 -.87987505389723E-03
  100 -.11554878338915E-02
  101 -.85378805896810E-03
  102 -.19841896110302E-02
  103 0.14184686411496E-02
  104 0.21291913000845E-03
  105 -.93468296943044E-02
  106 -.18539272471186E-03
  107 -.17376743029702E-04
  108 0.11249532353152E-03
  109 0.33910002634819E-02
  110 -.14405002710609E-02
  111 0.12211145896520E-02
  112 0.85217156988123E-04
  113 -.37210268955417E-04
  114 -.48006888032705E-04
  115 -.24495248193913E-03
  116 0.49494196794108E-03
  117 0.15879324250442E-03
  118 0.21803902137695E-03
  119 0.35831747274916E-03
  120 0.77315679865183E-04
  121 -.31695084819244E-03
  122 -.26658139112862E-02
  123 0.86440553725936E-02
  124 -.25352145459232E-03
  125 0.43464101168205E-02
 Sym=    3a   
 Ene= -.99074686778026E+01
 Spin= Alpha
 Occup= 2.000000
    1 -.22977313599691E-02
    2 -.15162917422422E-02
    3 0.21276156727129E-01
    4 0.54247750551452E-04
    5 -.96522266804631E-04
    6 -.55359991072977E-05
    7 0.63354282724827E-02
    8 0.32723445289749E-02
    9 0.65251759931834E-02
   10 -.48933512447250E-04
   11 -.13141239652622E-03
   12 0.18034590897347E-03
   13 -.11128575259120E-04
   14 0.10204039132972E-03
   15 -.55040709576114E-04
   16 0.19777116161962E-02
   17 0.69402992093178E-03
   18 0.44067971990023E-03
   19 0.81337572586600E-04
   20 0.45178782945361E-03
   21 -.55102380198847E-03
   22 -.54670901677108E-02
   23 0.53442062264906E-04
   24 0.63128744390344E-02
   25 0.22949913441301E-03
   26 0.10019697651475E-03
   27 -.32969611092777E-03
   28 0.29895300456035E-03
   29 -.39892573982033E-03
   30 0.87849430365597E-03
   31 -.20574104713546E-02
   32 -.57247598346365E-03
   33 -.11676950270677E-02
   34 0.27552887831086E-04
   35 -.37794902778689E-03
   36 0.45006939763112E-03
   37 -.44513905664864E-02
   38 -.32245663832121E-03
   39 -.59464638960743E-02
   40 -.13911765054638E-03
   41 -.10619751664942E-03
   42 0.24531516719580E-03
   43 0.29979542995171E-03
   44 -.34219146483317E-03
   45 -.72481216241596E-03
   46 0.18037512788326E-02
   47 0.11442792235926E-02
   48 -.20400399995918E-01
   49 0.12181190959939E-03
   50 0.79265893801239E-04
   51 -.43458205181593E-05
   52 0.59068235314760E-02
   53 -.29588570459862E-02
   54 -.58069108045771E-02
   55 0.45023905172959E-04
   56 0.86781752119973E-04
   57 -.13180565729293E-03
   58 0.33182548653674E-05
   59 0.83756508179494E-04
   60 0.51120260650010E-04
   61 0.48531494992324E-03
   62 0.30899699581955E-03
   63 -.37473286128971E-03
   64 -.15056407241776E-03
   65 0.96396232823037E-03
   66 -.32926167579533E-04
   67 0.12553781883954E-02
   68 -.20555349693228E-03
   69 -.33672855922874E-04
   70 -.15945201509583E-04
   71 -.99683099633621E-03
   72 -.54043396054564E-03
   73 0.56016221336865E-03
   74 -.20462078270829E-04
   75 0.17149718998462E-04
   76 0.33123592723672E-05
   77 0.13851815168922E-03
   78 -.19064945192605E-03
   79 -.46931233594732E-04
   80 -.11590994759185E-03
   81 -.20958141015280E-03
   82 0.56309799829135E-04
   83 0.17205747868526E-03
   84 0.76507072217342E+00
   85 0.41888571744748E-01
   86 -.61271736216815E-01
   87 0.12385275192551E-02
   88 0.36529154851820E-03
   89 -.71197755106545E-03
   90 -.74026390140571E-02
   91 -.14369059490106E-02
   92 0.34779818344856E-02
   93 0.58053806860484E-03
   94 -.30763887481900E-03
   95 -.27289919378584E-03
   96 0.42741074842068E-04
   97 0.33997662602979E-04
   98 -.37124662501531E-04
   99 -.67697013426885E-03
  100 0.87558175755473E-02
  101 -.33857120136630E-03
  102 0.88762518058449E-02
  103 -.62457903565099E+00
  104 -.34738430814530E-01
  105 0.55648993805975E-01
  106 0.13387440773204E-02
  107 -.25061878635523E-03
  108 0.55337449694169E-03
  109 -.76531724863667E-02
  110 0.11239354712470E-02
  111 -.32017575462320E-02
  112 -.72680854027987E-03
  113 0.38146835353143E-03
  114 0.34534018674844E-03
  115 0.27093673176358E-04
  116 0.62109840117395E-04
  117 0.43525666666099E-04
  118 0.43268292870372E-03
  119 -.73682278042554E-02
  120 0.64342718497667E-04
  121 -.76436005391069E-02
  122 -.80813007661193E-03
  123 -.19063121547520E-02
  124 0.68863217328959E-03
  125 0.17370413821356E-02
 Sym=    4a   
 Ene= -.99074010302668E+01
 Spin= Alpha
 Occup= 2.000000
    1 -.24056750877288E-02
    2 -.17199963899173E-02
    3 0.22636777973175E-02
    4 -.34370413266379E-03
    5 -.76835379404129E-04
    6 -.48035470158684E-04
    7 0.14943837557382E-02
    8 0.12442293089356E-02
    9 0.29771515646758E-02
   10 -.14829838736401E-04
   11 -.21043048782513E-03
   12 0.22526032656153E-03
   13 -.70997125712677E-04
   14 0.80570243901350E-04
   15 -.13863023890439E-04
   16 -.59722988587440E-03
   17 0.53826859148103E-03
   18 -.37000935093180E-02
   19 0.26326689412984E-03
   20 0.32297850547995E-03
   21 -.44977111237730E-03
   22 -.45479578127569E-02
   23 -.13279316259222E-02
   24 0.11834275161631E-02
   25 0.43095318228640E-03
   26 -.40851612493524E-04
   27 -.39010156979287E-03
   28 -.39467509680611E-04
   29 -.23980603056812E-03
   30 0.68173364485091E-03
   31 -.19638323039910E-03
   32 0.66563043038028E-03
   33 -.35373350477580E-02
   34 -.27459702526352E-03
   35 0.40697098825123E-03
   36 -.55106901389838E-03
   37 0.55521123895987E-02
   38 -.12888413683202E-02
   39 0.24174070505229E-02
   40 0.46837952665996E-03
   41 -.19965696754351E-04
   42 -.44841382990561E-03
   43 -.20302705866979E-04
   44 0.31331638507847E-03
   45 0.84394890539398E-03
   46 -.28593193677288E-02
   47 -.19901140437072E-02
   48 0.64710844937012E-02
   49 0.32614487066282E-03
   50 -.94504480394917E-04
   51 -.48362921255495E-04
   52 -.27277766672114E-02
   53 0.18728971089129E-02
   54 0.42234517031162E-02
   55 -.24504810920712E-04
   56 -.23230492478892E-03
   57 0.25680973570963E-03
   58 0.71881324296496E-04
   59 -.98736909989251E-04
   60 -.24844962604775E-04
   61 0.50744131917448E-03
   62 0.76663489249954E-03
   63 0.59452272131987E-03
   64 0.81316178358940E-03
   65 0.10460713506624E-01
   66 -.27255060116901E-03
   67 0.12361657232226E-01
   68 0.20756390458504E-04
   69 -.33623244427010E-03
   70 -.15855705964821E-03
   71 0.10326819359052E-03
   72 -.53408296355284E-02
   73 0.55449843441380E-02
   74 -.20210239328663E-03
   75 0.17001820837425E-03
   76 0.32084184912382E-04
   77 -.14278613784783E-04
   78 0.19458006353951E-04
   79 -.46399387926205E-03
   80 -.11494543897846E-02
   81 -.20641178253912E-02
   82 0.55779600892644E-03
   83 0.17135352918554E-02
   84 0.62505628882073E+00
   85 0.31517736643402E-01
   86 -.21921189049714E-01
   87 -.62274349413251E-03
   88 0.53469547759471E-03
   89 -.71542346565612E-03
   90 0.19846404545861E-02
   91 -.14068729425086E-02
   92 0.98697376975672E-03
   93 -.79051426254060E-03
   94 0.40020451263320E-03
   95 0.39030974990740E-03
   96 0.71897293149217E-04
   97 -.13331397964335E-03
   98 0.34976656147469E-04
   99 -.11538838052772E-02
  100 0.60526122556733E-02
  101 -.13363151453554E-02
  102 0.52658528160971E-02
  103 0.76545881296641E+00
  104 0.39260881073675E-01
  105 -.33736545640004E-01
  106 0.36150689147982E-03
  107 0.59699097531804E-03
  108 -.84399962126446E-03
  109 -.46188630100608E-03
  110 -.16658907708652E-02
  111 0.16630956745024E-02
  112 -.65833401588156E-03
  113 0.33053875164883E-03
  114 0.32779526423272E-03
  115 -.79247966719138E-04
  116 0.12570102837748E-03
  117 0.26756828881189E-04
  118 -.12661038424086E-02
  119 0.76821724775012E-02
  120 -.13771088756399E-02
  121 0.69351797743583E-02
  122 -.51628922136561E-03
  123 -.65366231907148E-03
  124 -.66737601810033E-03
  125 -.10221693248091E-02
 Sym=    5a   
 Ene= -.99058523555471E+01
 Spin= Alpha
 Occup= 2.000000
    1 0.77706817186472E-02
    2 -.29102092074319E-03
    3 0.15865842600832E-02
    4 -.85998015062864E-04
    5 0.12779489042600E-03
    6 0.58927108380744E-04
    7 0.18701236397783E-02
    8 0.19509185949438E-02
    9 0.20172130831639E-02
   10 -.42406687832639E-04
   11 0.11434241402722E-03
   12 -.71935726194582E-04
   13 0.27615516372935E-03
   14 0.89306195434451E-04
   15 0.25649949086794E-03
   16 0.41240218494701E-03
   17 -.31289109842611E-04
   18 0.93137362598140E-02
   19 -.42119188985703E-03
   20 -.10280901580508E-02
   21 0.63489586439776E-04
   22 -.49842615966037E-03
   23 0.58579276662623E-02
   24 -.50080834873019E-03
   25 -.18860361383234E-03
   26 -.17310124039812E-03
   27 0.36170485423047E-03
   28 -.15230061700502E-02
   29 0.29659710985003E-04
   30 -.66613069227446E-04
   31 0.40983808833753E-03
   32 -.30148643288819E-04
   33 0.93012868622163E-02
   34 0.42150839604646E-03
   35 -.10282663651555E-02
   36 0.63337437166768E-04
   37 0.50098869576101E-03
   38 0.58608641667909E-02
   39 -.50229794735223E-03
   40 -.18882631258660E-03
   41 -.17289449968301E-03
   42 0.36172081226962E-03
   43 0.15229895046081E-02
   44 -.28738271508174E-04
   45 -.68326322291264E-04
   46 0.79163946585402E-02
   47 -.28301582821921E-03
   48 0.15783705676584E-02
   49 0.85416650271274E-04
   50 0.12778365310590E-03
   51 0.58968394643240E-04
   52 -.18665113139282E-02
   53 0.19503457736620E-02
   54 0.20194563472012E-02
   55 -.42093479071182E-04
   56 0.11408470474917E-03
   57 -.71991225677987E-04
   58 -.27604970966216E-03
   59 -.89215962821900E-04
   60 0.25672467947713E-03
   61 0.40784211077737E-03
   62 0.12182272622704E-02
   63 0.40735706845595E-03
   64 0.12198891487449E-02
   65 0.98779178728011E+00
   66 0.52826071413428E-01
   67 -.59882057823140E-01
   68 0.85100712000104E-07
   69 -.16521084943644E-02
   70 0.59621553342115E-04
   71 0.11930429025124E-05
   72 0.66803585866687E-02
   73 0.20484129961212E-03
   74 -.12708408365354E-03
   75 0.11266023002382E-03
   76 0.14423853629719E-04
   77 -.23913512015677E-06
   78 0.29861045870840E-07
   79 -.23801641806345E-04
   80 -.13389365109141E-02
   81 0.10168259850113E-01
   82 -.13418106541090E-02
   83 0.10078901385691E-01
   84 -.73651477529309E-02
   85 -.10332848000396E-02
   86 0.39968769727171E-02
   87 0.67264051591236E-04
   88 0.40507791796066E-04
   89 -.26755245202169E-03
   90 0.68995036045948E-03
   91 0.27054302104028E-02
   92 -.60149509968003E-03
   93 -.69205220306257E-04
   94 0.10972657304148E-03
   95 -.40521352735226E-04
   96 0.29974252933621E-03
   97 -.31210711020353E-03
   98 -.24776271005909E-03
   99 -.44113132986421E-03
  100 -.13984268898797E-02
  101 0.16954733434180E-03
  102 0.78092566723868E-03
  103 -.74950435282170E-02
  104 -.10405293288209E-02
  105 0.40162292797554E-02
  106 -.67345864460511E-04
  107 0.40576345458987E-04
  108 -.26754598795765E-03
  109 -.69357464168659E-03
  110 0.27073053554965E-02
  111 -.60425168797723E-03
  112 -.69056981563807E-04
  113 0.10974588205551E-03
  114 -.40688900491706E-04
  115 -.30011927371650E-03
  116 0.31226213248420E-03
  117 -.24749750448551E-03
  118 -.44126388382624E-03
  119 -.13998573987402E-02
  120 0.16943458385472E-03
  121 0.77940257129141E-03
  122 -.10484881603116E-02
  123 -.18821244149646E-02
  124 -.10486142500909E-02
  125 -.18818123101578E-02
 Sym=    6a   
 Ene= -.99044684338881E+01
 Spin= Alpha
 Occup= 2.000000
    1 0.63951073900644E+00
    2 0.29828178414222E-01
    3 -.12691472166373E-01
    4 -.12178172634327E-02
    5 0.43499537130783E-03
    6 0.11487418943467E-02
    7 -.98822245638643E-03
    8 -.89511265037396E-03
    9 -.15426874597439E-02
   10 -.31032761429501E-03
   11 0.63265236169006E-04
   12 0.24706237812601E-03
   13 0.19138848083578E-03
   14 0.28641920972874E-03
   15 0.53249660815554E-03
   16 -.32462653904673E-02
   17 0.14835674998996E-02
   18 -.11087489478800E-01
   19 0.20469720550918E-03
   20 0.23719754557854E-03
   21 0.54222805897324E-03
   22 -.40365576932239E-02
   23 0.38611170940913E-03
   24 -.58445802698387E-03
   25 0.43945638367443E-03
   26 -.60896373027207E-04
   27 -.37856001064723E-03
   28 0.67434929261945E-04
   29 0.38948723154791E-03
   30 -.74801256175800E-03
   31 -.33578296157063E-02
   32 0.18726529822397E-02
   33 -.13601012008991E-01
   34 -.21213808532063E-03
   35 0.32634532783531E-03
   36 0.70660793415442E-03
   37 0.56958211619924E-02
   38 0.11813502886499E-02
   39 -.14833221521684E-02
   40 0.47162467502693E-03
   41 -.44353878689206E-04
   42 -.42727079633773E-03
   43 -.15516457304419E-03
   44 -.48679191904706E-03
   45 -.89544808949119E-03
   46 0.75346731803061E+00
   47 0.36031827239786E-01
   48 -.19186747339620E-01
   49 0.75395446646890E-03
   50 0.48199243919325E-03
   51 0.13129756774830E-02
   52 0.19551770643265E-02
   53 -.79433574306070E-03
   54 -.16816054284961E-02
   55 -.13938598877021E-03
   56 -.37362050154358E-04
   57 0.17674803892457E-03
   58 -.24048253165630E-03
   59 -.28476382047203E-03
   60 0.65890974764286E-03
   61 -.27533560011192E-02
   62 0.40575199795153E-02
   63 -.31159210696068E-02
   64 0.52915137621913E-02
   65 -.11072424161459E-01
   66 -.14393319018799E-02
   67 0.15149816263573E-01
   68 0.42217052939481E-04
   69 -.28705108246079E-03
   70 0.74148143879418E-04
   71 0.15317439367928E-03
   72 -.71861897231851E-02
   73 -.49193228768202E-02
   74 -.23649072844044E-03
   75 0.26063225810225E-03
   76 -.24141529661820E-04
   77 -.18282727856392E-04
   78 -.73271783386407E-05
   79 0.33614838469537E-03
   80 0.60963503843849E-03
   81 0.10711148686817E-02
   82 -.14301972513085E-02
   83 -.18353043990579E-03
   84 0.26474028778613E-02
   85 -.15634146527091E-02
   86 0.53689174507462E-02
   87 -.33083323200672E-03
   88 0.15351623645398E-03
   89 0.11449829932440E-03
   90 0.20704258132145E-03
   91 -.19473275496703E-03
   92 -.45118992497336E-02
   93 -.10132668470780E-03
   94 -.17186712299985E-03
   95 0.27319380770765E-03
   96 0.20602261555343E-03
   97 -.83296517696263E-04
   98 -.97833474580918E-04
   99 0.30832695911304E-03
  100 0.88992805457147E-03
  101 -.73458049961679E-03
  102 -.54642315539210E-03
  103 0.30378906529897E-02
  104 -.18732030387548E-02
  105 0.97034682367088E-02
  106 0.32277419012899E-03
  107 0.18164298791432E-03
  108 0.10875158472774E-03
  109 -.11707988573770E-02
  110 0.39476740920874E-04
  111 -.59835462998463E-02
  112 -.11136106189801E-03
  113 -.18032459323039E-03
  114 0.29168565512840E-03
  115 -.23211508758127E-03
  116 0.10729986437535E-03
  117 -.11488172483641E-03
  118 0.30329229673164E-03
  119 0.93645288605329E-03
  120 -.95686314676884E-03
  121 -.64963573703545E-03
  122 -.78585139167663E-05
  123 0.18557245002619E-03
  124 -.16689580501649E-03
  125 -.15850923764477E-03
 Sym=    7a   
 Ene= -.99039954987774E+01
 Spin= Alpha
 Occup= 2.000000
    1 0.75303927152973E+00
    2 0.40573746908188E-01
    3 -.40982519125824E-01
    4 0.27626404982672E-02
    5 0.32290514901460E-03
    6 0.11060456268688E-02
    7 -.60322796105926E-02
    8 0.53729832276925E-03
    9 -.97587372688202E-03
   10 0.10284669577466E-02
   11 -.61356928999152E-03
   12 -.41489766775505E-03
   13 0.31935942687157E-03
   14 0.14775637823640E-04
   15 0.81522228548898E-03
   16 -.86780396758428E-03
   17 0.25130595057466E-02
   18 -.16291404195135E-01
   19 0.64866443721485E-04
   20 0.56423392033728E-03
   21 0.10495091674779E-02
   22 -.10511973619230E-01
   23 0.48913913378446E-02
   24 -.55389851283601E-02
   25 0.23497989444824E-03
   26 0.97220371095296E-04
   27 -.33220026554353E-03
   28 0.54137459607045E-03
   29 0.62353815338852E-03
   30 -.96643447072572E-03
   31 0.34169089476404E-03
   32 -.22356784456670E-02
   33 0.14269469900058E-01
   34 0.29631747553144E-04
   35 -.51911556883503E-03
   36 -.94823599023177E-03
   37 -.97105517459679E-02
   38 -.47640303725341E-02
   39 0.53762505035912E-02
   40 -.16018817523844E-03
   41 -.10577218552485E-03
   42 0.26596036076329E-03
   43 0.52414455612480E-03
   44 0.55216950398103E-03
   45 0.83187411483663E-03
   46 -.63900339231284E+00
   47 -.35184119786292E-01
   48 0.38374901735540E-01
   49 0.29231489996516E-02
   50 -.24742180279321E-03
   51 -.90685675475870E-03
   52 -.57902182370824E-02
   53 -.67686158461220E-03
   54 0.71602341411754E-03
   55 -.10651342898684E-02