8
	Energy: -142152.2726656
C          0.08642        0.13844       -0.00012
O          0.64735        1.20098        0.00003
O          0.76775       -1.03876        0.00001
C         -1.38977       -0.11201        0.00002
H         -1.65486       -0.69278       -0.87432
H         -1.65468       -0.69291        0.87433
H         -1.91744        0.82784        0.00014
H          1.72626       -0.89846        0.00008
